
.Version 9.3.1 of ABINIT 
.(MPI version, prepared for a x86_64_linux_gnu9.3 computer) 

.Copyright (C) 1998-2020 ABINIT group . 
 ABINIT comes with ABSOLUTELY NO WARRANTY.
 It is free software, and you are welcome to redistribute it
 under certain conditions (GNU General Public License,
 see ~abinit/COPYING or http://www.gnu.org/copyleft/gpl.txt).

 ABINIT is a project of the Universite Catholique de Louvain,
 Corning Inc. and other collaborators, see ~abinit/doc/developers/contributors.txt .
 Please read https://docs.abinit.org/theory/acknowledgments for suggested
 acknowledgments of the ABINIT effort.
 For more information, see https://www.abinit.org .

.Starting date : Tue 13 Apr 2021.
- ( at 12h46 )
  
- input  file    -> toptic_1.in
- output file    -> toptic_1.abo
- root for input  files -> toptic_1i
- root for output files -> toptic_1o


 DATASET    1 : space group F-4 3 m (#216); Bravais cF (face-center cubic)
================================================================================
 Values of the parameters that define the memory need for DATASET  1.
     intxc =       0    ionmov =       0      iscf =       7    lmnmax =       1
     lnmax =       1     mgfft =      30  mpssoang =       2    mqgrid =    3001
     natom =       2  nloc_mem =       1    nspden =       1   nspinor =       1
    nsppol =       1      nsym =      24    n1xccc =    2501    ntypat =       2
    occopt =       1   xclevel =       1
-    mband =           4        mffmem =           1         mkmem =           5
       mpw =         848          nfft =       27000          nkpt =          29
================================================================================
P This job should need less than                       8.645 Mbytes of memory.
  Rough estimation (10% accuracy) of disk space for files :
_ WF disk file :      1.503 Mbytes ; DEN or POT disk file :      0.208 Mbytes.
================================================================================


 DATASET    2 : space group F-4 3 m (#216); Bravais cF (face-center cubic)
================================================================================
 Values of the parameters that define the memory need for DATASET  2.
     intxc =       0    ionmov =       0      iscf =      -2    lmnmax =       1
     lnmax =       1     mgfft =      30  mpssoang =       2    mqgrid =    3001
     natom =       2  nloc_mem =       1    nspden =       1   nspinor =       1
    nsppol =       1      nsym =      24    n1xccc =    2501    ntypat =       2
    occopt =       1   xclevel =       1
-    mband =          12        mffmem =           1         mkmem =           5
       mpw =         848          nfft =       27000          nkpt =          29
================================================================================
P This job should need less than                       5.906 Mbytes of memory.
  Rough estimation (10% accuracy) of disk space for files :
_ WF disk file :      4.505 Mbytes ; DEN or POT disk file :      0.208 Mbytes.
================================================================================


 DATASET    3 : space group F-4 3 m (#216); Bravais cF (face-center cubic)
================================================================================
 Values of the parameters that define the memory need for DATASET  3.
     intxc =       0    ionmov =       0      iscf =      -2    lmnmax =       1
     lnmax =       1     mgfft =      30  mpssoang =       2    mqgrid =    3001
     natom =       2  nloc_mem =       1    nspden =       1   nspinor =       1
    nsppol =       1      nsym =      24    n1xccc =    2501    ntypat =       2
    occopt =       1   xclevel =       1
-    mband =          12        mffmem =           1         mkmem =          86
       mpw =         848          nfft =       27000          nkpt =         512
================================================================================
P This job should need less than                      20.154 Mbytes of memory.
  Rough estimation (10% accuracy) of disk space for files :
_ WF disk file :     79.502 Mbytes ; DEN or POT disk file :      0.208 Mbytes.
================================================================================


 DATASET    4 : space group F-4 3 m (#216); Bravais cF (face-center cubic)
================================================================================
 Values of the parameters that define the memory need for DATASET  4 (RF).
     intxc =       0      iscf =      -3    lmnmax =       1     lnmax =       1
     mgfft =      30  mpssoang =       2    mqgrid =    3001     natom =       2
  nloc_mem =       1    nspden =       1   nspinor =       1    nsppol =       1
      nsym =      24    n1xccc =    2501    ntypat =       2    occopt =       1
   xclevel =       1
-    mband =          12        mffmem =           1         mkmem =          86
-   mkqmem =          86        mk1mem =          86           mpw =         869
      nfft =       27000          nkpt =         512
================================================================================
P This job should need less than                      50.492 Mbytes of memory.
  Rough estimation (10% accuracy) of disk space for files :
_ WF disk file :     81.471 Mbytes ; DEN or POT disk file :      0.208 Mbytes.
================================================================================


 DATASET    5 : space group F-4 3 m (#216); Bravais cF (face-center cubic)
================================================================================
 Values of the parameters that define the memory need for DATASET  5 (RF).
     intxc =       0      iscf =      -3    lmnmax =       1     lnmax =       1
     mgfft =      30  mpssoang =       2    mqgrid =    3001     natom =       2
  nloc_mem =       1    nspden =       1   nspinor =       1    nsppol =       1
      nsym =      24    n1xccc =    2501    ntypat =       2    occopt =       1
   xclevel =       1
-    mband =          12        mffmem =           1         mkmem =          86
-   mkqmem =          86        mk1mem =          86           mpw =         869
      nfft =       27000          nkpt =         512
================================================================================
P This job should need less than                      50.492 Mbytes of memory.
  Rough estimation (10% accuracy) of disk space for files :
_ WF disk file :     81.471 Mbytes ; DEN or POT disk file :      0.208 Mbytes.
================================================================================


 DATASET    6 : space group F-4 3 m (#216); Bravais cF (face-center cubic)
================================================================================
 Values of the parameters that define the memory need for DATASET  6 (RF).
     intxc =       0      iscf =      -3    lmnmax =       1     lnmax =       1
     mgfft =      30  mpssoang =       2    mqgrid =    3001     natom =       2
  nloc_mem =       1    nspden =       1   nspinor =       1    nsppol =       1
      nsym =      24    n1xccc =    2501    ntypat =       2    occopt =       1
   xclevel =       1
-    mband =          12        mffmem =           1         mkmem =          86
-   mkqmem =          86        mk1mem =          86           mpw =         869
      nfft =       27000          nkpt =         512
================================================================================
P This job should need less than                      50.492 Mbytes of memory.
  Rough estimation (10% accuracy) of disk space for files :
_ WF disk file :     81.471 Mbytes ; DEN or POT disk file :      0.208 Mbytes.
================================================================================

--------------------------------------------------------------------------------
------------- Echo of variables that govern the present computation ------------
--------------------------------------------------------------------------------
-
- outvars: echo of selected default values                                      
-   iomode0 =  0 , fftalg0 =112 , wfoptalg0 =  0
-
- outvars: echo of global parameters not present in the input file              
-  max_nthreads =    0
-
 -outvars: echo values of preprocessed input variables --------
            acell      1.0600000000E+01  1.0600000000E+01  1.0600000000E+01 Bohr
              amu      6.97230000E+01  7.49215900E+01
           diemac      1.00000000E+01
             ecut      1.50000000E+01 Hartree
-          fftalg         112
           getden1          0
           getden2          1
           getden3          1
           getden4          0
           getden5          0
           getden6          0
           getwfk1          0
           getwfk2          1
           getwfk3          2
           getwfk4          3
           getwfk5          3
           getwfk6          3
             iscf1          7
             iscf2         -2
             iscf3         -2
             iscf4         -3
             iscf5         -3
             iscf6         -3
           istwfk1       2    0    0    0    3    0    0    0    0    0
                         0    0    0    0    0    0    0    0    0    0
                         7    0    0    0    0    0    0    0    0
           istwfk2       2    0    0    0    3    0    0    0    0    0
                         0    0    0    0    0    0    0    0    0    0
                         7    0    0    0    0    0    0    0    0
           istwfk3       2    0    0    0    3    0    0    0    0    0
                         0    0    0    0    0    0    0    0    0    0
                         0    0    0    0    0    0    0    0    0    0
                         0    0    6    0    0    0    7    0    0    0
                         0    0    0    0    0    0    0    0    0    0
           istwfk4       1    0    0    0    1    0    0    0    0    0
                         0    0    0    0    0    0    0    0    0    0
                         0    0    0    0    0    0    0    0    0    0
                         0    0    1    0    0    0    1    0    0    0
                         0    0    0    0    0    0    0    0    0    0
           istwfk5       1    0    0    0    1    0    0    0    0    0
                         0    0    0    0    0    0    0    0    0    0
                         0    0    0    0    0    0    0    0    0    0
                         0    0    1    0    0    0    1    0    0    0
                         0    0    0    0    0    0    0    0    0    0
           istwfk6       1    0    0    0    1    0    0    0    0    0
                         0    0    0    0    0    0    0    0    0    0
                         0    0    0    0    0    0    0    0    0    0
                         0    0    1    0    0    0    1    0    0    0
                         0    0    0    0    0    0    0    0    0    0
                       outvar_i_n : Printing only first  50 k-points.
           jdtset        1    2    3    4    5    6
              kpt1     0.00000000E+00  0.00000000E+00  0.00000000E+00
                       1.25000000E-01  0.00000000E+00  0.00000000E+00
                       2.50000000E-01  0.00000000E+00  0.00000000E+00
                       3.75000000E-01  0.00000000E+00  0.00000000E+00
                       5.00000000E-01  0.00000000E+00  0.00000000E+00
                       1.25000000E-01  1.25000000E-01  0.00000000E+00
                       2.50000000E-01  1.25000000E-01  0.00000000E+00
                       3.75000000E-01  1.25000000E-01  0.00000000E+00
                       5.00000000E-01  1.25000000E-01  0.00000000E+00
                      -3.75000000E-01  1.25000000E-01  0.00000000E+00
                      -2.50000000E-01  1.25000000E-01  0.00000000E+00
                      -1.25000000E-01  1.25000000E-01  0.00000000E+00
                       2.50000000E-01  2.50000000E-01  0.00000000E+00
                       3.75000000E-01  2.50000000E-01  0.00000000E+00
                       5.00000000E-01  2.50000000E-01  0.00000000E+00
                      -3.75000000E-01  2.50000000E-01  0.00000000E+00
                      -2.50000000E-01  2.50000000E-01  0.00000000E+00
                       3.75000000E-01  3.75000000E-01  0.00000000E+00
                       5.00000000E-01  3.75000000E-01  0.00000000E+00
                      -3.75000000E-01  3.75000000E-01  0.00000000E+00
                       5.00000000E-01  5.00000000E-01  0.00000000E+00
                       3.75000000E-01  2.50000000E-01  1.25000000E-01
                       5.00000000E-01  2.50000000E-01  1.25000000E-01
                      -3.75000000E-01  2.50000000E-01  1.25000000E-01
                       5.00000000E-01  3.75000000E-01  1.25000000E-01
                      -3.75000000E-01  3.75000000E-01  1.25000000E-01
                      -2.50000000E-01  3.75000000E-01  1.25000000E-01
                      -3.75000000E-01  5.00000000E-01  1.25000000E-01
                      -2.50000000E-01  5.00000000E-01  2.50000000E-01
              kpt2     0.00000000E+00  0.00000000E+00  0.00000000E+00
                       1.25000000E-01  0.00000000E+00  0.00000000E+00
                       2.50000000E-01  0.00000000E+00  0.00000000E+00
                       3.75000000E-01  0.00000000E+00  0.00000000E+00
                       5.00000000E-01  0.00000000E+00  0.00000000E+00
                       1.25000000E-01  1.25000000E-01  0.00000000E+00
                       2.50000000E-01  1.25000000E-01  0.00000000E+00
                       3.75000000E-01  1.25000000E-01  0.00000000E+00
                       5.00000000E-01  1.25000000E-01  0.00000000E+00
                      -3.75000000E-01  1.25000000E-01  0.00000000E+00
                      -2.50000000E-01  1.25000000E-01  0.00000000E+00
                      -1.25000000E-01  1.25000000E-01  0.00000000E+00
                       2.50000000E-01  2.50000000E-01  0.00000000E+00
                       3.75000000E-01  2.50000000E-01  0.00000000E+00
                       5.00000000E-01  2.50000000E-01  0.00000000E+00
                      -3.75000000E-01  2.50000000E-01  0.00000000E+00
                      -2.50000000E-01  2.50000000E-01  0.00000000E+00
                       3.75000000E-01  3.75000000E-01  0.00000000E+00
                       5.00000000E-01  3.75000000E-01  0.00000000E+00
                      -3.75000000E-01  3.75000000E-01  0.00000000E+00
                       5.00000000E-01  5.00000000E-01  0.00000000E+00
                       3.75000000E-01  2.50000000E-01  1.25000000E-01
                       5.00000000E-01  2.50000000E-01  1.25000000E-01
                      -3.75000000E-01  2.50000000E-01  1.25000000E-01
                       5.00000000E-01  3.75000000E-01  1.25000000E-01
                      -3.75000000E-01  3.75000000E-01  1.25000000E-01
                      -2.50000000E-01  3.75000000E-01  1.25000000E-01
                      -3.75000000E-01  5.00000000E-01  1.25000000E-01
                      -2.50000000E-01  5.00000000E-01  2.50000000E-01
              kpt3     0.00000000E+00  0.00000000E+00  0.00000000E+00
                       1.25000000E-01  0.00000000E+00  0.00000000E+00
                       2.50000000E-01  0.00000000E+00  0.00000000E+00
                       3.75000000E-01  0.00000000E+00  0.00000000E+00
                       5.00000000E-01  0.00000000E+00  0.00000000E+00
                      -3.75000000E-01  0.00000000E+00  0.00000000E+00
                      -2.50000000E-01  0.00000000E+00  0.00000000E+00
                      -1.25000000E-01  0.00000000E+00  0.00000000E+00
                       0.00000000E+00  1.25000000E-01  0.00000000E+00
                       1.25000000E-01  1.25000000E-01  0.00000000E+00
                       2.50000000E-01  1.25000000E-01  0.00000000E+00
                       3.75000000E-01  1.25000000E-01  0.00000000E+00
                       5.00000000E-01  1.25000000E-01  0.00000000E+00
                      -3.75000000E-01  1.25000000E-01  0.00000000E+00
                      -2.50000000E-01  1.25000000E-01  0.00000000E+00
                      -1.25000000E-01  1.25000000E-01  0.00000000E+00
                       0.00000000E+00  2.50000000E-01  0.00000000E+00
                       1.25000000E-01  2.50000000E-01  0.00000000E+00
                       2.50000000E-01  2.50000000E-01  0.00000000E+00
                       3.75000000E-01  2.50000000E-01  0.00000000E+00
                       5.00000000E-01  2.50000000E-01  0.00000000E+00
                      -3.75000000E-01  2.50000000E-01  0.00000000E+00
                      -2.50000000E-01  2.50000000E-01  0.00000000E+00
                      -1.25000000E-01  2.50000000E-01  0.00000000E+00
                       0.00000000E+00  3.75000000E-01  0.00000000E+00
                       1.25000000E-01  3.75000000E-01  0.00000000E+00
                       2.50000000E-01  3.75000000E-01  0.00000000E+00
                       3.75000000E-01  3.75000000E-01  0.00000000E+00
                       5.00000000E-01  3.75000000E-01  0.00000000E+00
                      -3.75000000E-01  3.75000000E-01  0.00000000E+00
                      -2.50000000E-01  3.75000000E-01  0.00000000E+00
                      -1.25000000E-01  3.75000000E-01  0.00000000E+00
                       0.00000000E+00  5.00000000E-01  0.00000000E+00
                       1.25000000E-01  5.00000000E-01  0.00000000E+00
                       2.50000000E-01  5.00000000E-01  0.00000000E+00
                       3.75000000E-01  5.00000000E-01  0.00000000E+00
                       5.00000000E-01  5.00000000E-01  0.00000000E+00
                      -3.75000000E-01  5.00000000E-01  0.00000000E+00
                      -2.50000000E-01  5.00000000E-01  0.00000000E+00
                      -1.25000000E-01  5.00000000E-01  0.00000000E+00
                       0.00000000E+00 -3.75000000E-01  0.00000000E+00
                       1.25000000E-01 -3.75000000E-01  0.00000000E+00
                       2.50000000E-01 -3.75000000E-01  0.00000000E+00
                       3.75000000E-01 -3.75000000E-01  0.00000000E+00
                       5.00000000E-01 -3.75000000E-01  0.00000000E+00
                      -3.75000000E-01 -3.75000000E-01  0.00000000E+00
                      -2.50000000E-01 -3.75000000E-01  0.00000000E+00
                      -1.25000000E-01 -3.75000000E-01  0.00000000E+00
                       0.00000000E+00 -2.50000000E-01  0.00000000E+00
                       1.25000000E-01 -2.50000000E-01  0.00000000E+00
              kpt4     0.00000000E+00  0.00000000E+00  0.00000000E+00
                       1.25000000E-01  0.00000000E+00  0.00000000E+00
                       2.50000000E-01  0.00000000E+00  0.00000000E+00
                       3.75000000E-01  0.00000000E+00  0.00000000E+00
                       5.00000000E-01  0.00000000E+00  0.00000000E+00
                      -3.75000000E-01  0.00000000E+00  0.00000000E+00
                      -2.50000000E-01  0.00000000E+00  0.00000000E+00
                      -1.25000000E-01  0.00000000E+00  0.00000000E+00
                       0.00000000E+00  1.25000000E-01  0.00000000E+00
                       1.25000000E-01  1.25000000E-01  0.00000000E+00
                       2.50000000E-01  1.25000000E-01  0.00000000E+00
                       3.75000000E-01  1.25000000E-01  0.00000000E+00
                       5.00000000E-01  1.25000000E-01  0.00000000E+00
                      -3.75000000E-01  1.25000000E-01  0.00000000E+00
                      -2.50000000E-01  1.25000000E-01  0.00000000E+00
                      -1.25000000E-01  1.25000000E-01  0.00000000E+00
                       0.00000000E+00  2.50000000E-01  0.00000000E+00
                       1.25000000E-01  2.50000000E-01  0.00000000E+00
                       2.50000000E-01  2.50000000E-01  0.00000000E+00
                       3.75000000E-01  2.50000000E-01  0.00000000E+00
                       5.00000000E-01  2.50000000E-01  0.00000000E+00
                      -3.75000000E-01  2.50000000E-01  0.00000000E+00
                      -2.50000000E-01  2.50000000E-01  0.00000000E+00
                      -1.25000000E-01  2.50000000E-01  0.00000000E+00
                       0.00000000E+00  3.75000000E-01  0.00000000E+00
                       1.25000000E-01  3.75000000E-01  0.00000000E+00
                       2.50000000E-01  3.75000000E-01  0.00000000E+00
                       3.75000000E-01  3.75000000E-01  0.00000000E+00
                       5.00000000E-01  3.75000000E-01  0.00000000E+00
                      -3.75000000E-01  3.75000000E-01  0.00000000E+00
                      -2.50000000E-01  3.75000000E-01  0.00000000E+00
                      -1.25000000E-01  3.75000000E-01  0.00000000E+00
                       0.00000000E+00  5.00000000E-01  0.00000000E+00
                       1.25000000E-01  5.00000000E-01  0.00000000E+00
                       2.50000000E-01  5.00000000E-01  0.00000000E+00
                       3.75000000E-01  5.00000000E-01  0.00000000E+00
                       5.00000000E-01  5.00000000E-01  0.00000000E+00
                      -3.75000000E-01  5.00000000E-01  0.00000000E+00
                      -2.50000000E-01  5.00000000E-01  0.00000000E+00
                      -1.25000000E-01  5.00000000E-01  0.00000000E+00
                       0.00000000E+00 -3.75000000E-01  0.00000000E+00
                       1.25000000E-01 -3.75000000E-01  0.00000000E+00
                       2.50000000E-01 -3.75000000E-01  0.00000000E+00
                       3.75000000E-01 -3.75000000E-01  0.00000000E+00
                       5.00000000E-01 -3.75000000E-01  0.00000000E+00
                      -3.75000000E-01 -3.75000000E-01  0.00000000E+00
                      -2.50000000E-01 -3.75000000E-01  0.00000000E+00
                      -1.25000000E-01 -3.75000000E-01  0.00000000E+00
                       0.00000000E+00 -2.50000000E-01  0.00000000E+00
                       1.25000000E-01 -2.50000000E-01  0.00000000E+00
              kpt5     0.00000000E+00  0.00000000E+00  0.00000000E+00
                       1.25000000E-01  0.00000000E+00  0.00000000E+00
                       2.50000000E-01  0.00000000E+00  0.00000000E+00
                       3.75000000E-01  0.00000000E+00  0.00000000E+00
                       5.00000000E-01  0.00000000E+00  0.00000000E+00
                      -3.75000000E-01  0.00000000E+00  0.00000000E+00
                      -2.50000000E-01  0.00000000E+00  0.00000000E+00
                      -1.25000000E-01  0.00000000E+00  0.00000000E+00
                       0.00000000E+00  1.25000000E-01  0.00000000E+00
                       1.25000000E-01  1.25000000E-01  0.00000000E+00
                       2.50000000E-01  1.25000000E-01  0.00000000E+00
                       3.75000000E-01  1.25000000E-01  0.00000000E+00
                       5.00000000E-01  1.25000000E-01  0.00000000E+00
                      -3.75000000E-01  1.25000000E-01  0.00000000E+00
                      -2.50000000E-01  1.25000000E-01  0.00000000E+00
                      -1.25000000E-01  1.25000000E-01  0.00000000E+00
                       0.00000000E+00  2.50000000E-01  0.00000000E+00
                       1.25000000E-01  2.50000000E-01  0.00000000E+00
                       2.50000000E-01  2.50000000E-01  0.00000000E+00
                       3.75000000E-01  2.50000000E-01  0.00000000E+00
                       5.00000000E-01  2.50000000E-01  0.00000000E+00
                      -3.75000000E-01  2.50000000E-01  0.00000000E+00
                      -2.50000000E-01  2.50000000E-01  0.00000000E+00
                      -1.25000000E-01  2.50000000E-01  0.00000000E+00
                       0.00000000E+00  3.75000000E-01  0.00000000E+00
                       1.25000000E-01  3.75000000E-01  0.00000000E+00
                       2.50000000E-01  3.75000000E-01  0.00000000E+00
                       3.75000000E-01  3.75000000E-01  0.00000000E+00
                       5.00000000E-01  3.75000000E-01  0.00000000E+00
                      -3.75000000E-01  3.75000000E-01  0.00000000E+00
                      -2.50000000E-01  3.75000000E-01  0.00000000E+00
                      -1.25000000E-01  3.75000000E-01  0.00000000E+00
                       0.00000000E+00  5.00000000E-01  0.00000000E+00
                       1.25000000E-01  5.00000000E-01  0.00000000E+00
                       2.50000000E-01  5.00000000E-01  0.00000000E+00
                       3.75000000E-01  5.00000000E-01  0.00000000E+00
                       5.00000000E-01  5.00000000E-01  0.00000000E+00
                      -3.75000000E-01  5.00000000E-01  0.00000000E+00
                      -2.50000000E-01  5.00000000E-01  0.00000000E+00
                      -1.25000000E-01  5.00000000E-01  0.00000000E+00
                       0.00000000E+00 -3.75000000E-01  0.00000000E+00
                       1.25000000E-01 -3.75000000E-01  0.00000000E+00
                       2.50000000E-01 -3.75000000E-01  0.00000000E+00
                       3.75000000E-01 -3.75000000E-01  0.00000000E+00
                       5.00000000E-01 -3.75000000E-01  0.00000000E+00
                      -3.75000000E-01 -3.75000000E-01  0.00000000E+00
                      -2.50000000E-01 -3.75000000E-01  0.00000000E+00
                      -1.25000000E-01 -3.75000000E-01  0.00000000E+00
                       0.00000000E+00 -2.50000000E-01  0.00000000E+00
                       1.25000000E-01 -2.50000000E-01  0.00000000E+00
              kpt6     0.00000000E+00  0.00000000E+00  0.00000000E+00
                       1.25000000E-01  0.00000000E+00  0.00000000E+00
                       2.50000000E-01  0.00000000E+00  0.00000000E+00
                       3.75000000E-01  0.00000000E+00  0.00000000E+00
                       5.00000000E-01  0.00000000E+00  0.00000000E+00
                      -3.75000000E-01  0.00000000E+00  0.00000000E+00
                      -2.50000000E-01  0.00000000E+00  0.00000000E+00
                      -1.25000000E-01  0.00000000E+00  0.00000000E+00
                       0.00000000E+00  1.25000000E-01  0.00000000E+00
                       1.25000000E-01  1.25000000E-01  0.00000000E+00
                       2.50000000E-01  1.25000000E-01  0.00000000E+00
                       3.75000000E-01  1.25000000E-01  0.00000000E+00
                       5.00000000E-01  1.25000000E-01  0.00000000E+00
                      -3.75000000E-01  1.25000000E-01  0.00000000E+00
                      -2.50000000E-01  1.25000000E-01  0.00000000E+00
                      -1.25000000E-01  1.25000000E-01  0.00000000E+00
                       0.00000000E+00  2.50000000E-01  0.00000000E+00
                       1.25000000E-01  2.50000000E-01  0.00000000E+00
                       2.50000000E-01  2.50000000E-01  0.00000000E+00
                       3.75000000E-01  2.50000000E-01  0.00000000E+00
                       5.00000000E-01  2.50000000E-01  0.00000000E+00
                      -3.75000000E-01  2.50000000E-01  0.00000000E+00
                      -2.50000000E-01  2.50000000E-01  0.00000000E+00
                      -1.25000000E-01  2.50000000E-01  0.00000000E+00
                       0.00000000E+00  3.75000000E-01  0.00000000E+00
                       1.25000000E-01  3.75000000E-01  0.00000000E+00
                       2.50000000E-01  3.75000000E-01  0.00000000E+00
                       3.75000000E-01  3.75000000E-01  0.00000000E+00
                       5.00000000E-01  3.75000000E-01  0.00000000E+00
                      -3.75000000E-01  3.75000000E-01  0.00000000E+00
                      -2.50000000E-01  3.75000000E-01  0.00000000E+00
                      -1.25000000E-01  3.75000000E-01  0.00000000E+00
                       0.00000000E+00  5.00000000E-01  0.00000000E+00
                       1.25000000E-01  5.00000000E-01  0.00000000E+00
                       2.50000000E-01  5.00000000E-01  0.00000000E+00
                       3.75000000E-01  5.00000000E-01  0.00000000E+00
                       5.00000000E-01  5.00000000E-01  0.00000000E+00
                      -3.75000000E-01  5.00000000E-01  0.00000000E+00
                      -2.50000000E-01  5.00000000E-01  0.00000000E+00
                      -1.25000000E-01  5.00000000E-01  0.00000000E+00
                       0.00000000E+00 -3.75000000E-01  0.00000000E+00
                       1.25000000E-01 -3.75000000E-01  0.00000000E+00
                       2.50000000E-01 -3.75000000E-01  0.00000000E+00
                       3.75000000E-01 -3.75000000E-01  0.00000000E+00
                       5.00000000E-01 -3.75000000E-01  0.00000000E+00
                      -3.75000000E-01 -3.75000000E-01  0.00000000E+00
                      -2.50000000E-01 -3.75000000E-01  0.00000000E+00
                      -1.25000000E-01 -3.75000000E-01  0.00000000E+00
                       0.00000000E+00 -2.50000000E-01  0.00000000E+00
                       1.25000000E-01 -2.50000000E-01  0.00000000E+00
                       outvar_i_n : Printing only first  50 k-points.
           kptopt1          1
           kptopt2          1
           kptopt3          3
           kptopt4          3
           kptopt5          3
           kptopt6          3
         kptrlatt        8    0    0      0    8    0      0    0    8
          kptrlen      5.99626550E+01
P           mkmem1          5
P           mkmem2          5
P           mkmem3         86
P           mkmem4         86
P           mkmem5         86
P           mkmem6         86
P          mkqmem1          5
P          mkqmem2          5
P          mkqmem3         86
P          mkqmem4         86
P          mkqmem5         86
P          mkqmem6         86
P          mk1mem1          5
P          mk1mem2          5
P          mk1mem3         86
P          mk1mem4         86
P          mk1mem5         86
P          mk1mem6         86
            natom           2
            nband1          4
            nband2         12
            nband3         12
            nband4         12
            nband5         12
            nband6         12
           nbdbuf1          0
           nbdbuf2          2
           nbdbuf3          2
           nbdbuf4          2
           nbdbuf5          2
           nbdbuf6          2
           ndtset           6
            ngfft          30      30      30
             nkpt1         29
             nkpt2         29
             nkpt3        512
             nkpt4        512
             nkpt5        512
             nkpt6        512
            nline1          4
            nline2          4
            nline3          4
            nline4          0
            nline5          0
            nline6          0
             nqpt1          0
             nqpt2          0
             nqpt3          0
             nqpt4          1
             nqpt5          1
             nqpt6          1
            nstep1         25
            nstep2         25
            nstep3         25
            nstep4          1
            nstep5          1
            nstep6          1
             nsym          24
           ntypat           2
              occ1     2.000000  2.000000  2.000000  2.000000
              occ4     2.000000  2.000000  2.000000  2.000000  0.000000  0.000000
                       0.000000  0.000000  0.000000  0.000000  0.000000  0.000000
              occ5     2.000000  2.000000  2.000000  2.000000  0.000000  0.000000
                       0.000000  0.000000  0.000000  0.000000  0.000000  0.000000
              occ6     2.000000  2.000000  2.000000  2.000000  0.000000  0.000000
                       0.000000  0.000000  0.000000  0.000000  0.000000  0.000000
        optdriver1          0
        optdriver2          0
        optdriver3          0
        optdriver4          1
        optdriver5          1
        optdriver6          1
            prtwf1          1
            prtwf2          1
            prtwf3          1
            prtwf4          3
            prtwf5          3
            prtwf6          3
            rfdir1          0       0       0
            rfdir2          0       0       0
            rfdir3          0       0       0
            rfdir4          1       0       0
            rfdir5          0       1       0
            rfdir6          0       0       1
           rfelfd1          0
           rfelfd2          0
           rfelfd3          0
           rfelfd4          2
           rfelfd5          2
           rfelfd6          2
            rprim      0.0000000000E+00  5.0000000000E-01  5.0000000000E-01
                       5.0000000000E-01  0.0000000000E+00  5.0000000000E-01
                       5.0000000000E-01  5.0000000000E-01  0.0000000000E+00
          spgroup         216
           symrel      1  0  0   0  1  0   0  0  1       0 -1  1   0 -1  0   1 -1  0
                      -1  0  0  -1  0  1  -1  1  0       0  1 -1   1  0 -1   0  0 -1
                      -1  0  0  -1  1  0  -1  0  1       0 -1  1   1 -1  0   0 -1  0
                       1  0  0   0  0  1   0  1  0       0  1 -1   0  0 -1   1  0 -1
                      -1  0  1  -1  1  0  -1  0  0       0 -1  0   1 -1  0   0 -1  1
                       1  0 -1   0  0 -1   0  1 -1       0  1  0   0  0  1   1  0  0
                       1  0 -1   0  1 -1   0  0 -1       0 -1  0   0 -1  1   1 -1  0
                      -1  0  1  -1  0  0  -1  1  0       0  1  0   1  0  0   0  0  1
                       0  0 -1   0  1 -1   1  0 -1       1 -1  0   0 -1  1   0 -1  0
                       0  0  1   1  0  0   0  1  0      -1  1  0  -1  0  0  -1  0  1
                       0  0  1   0  1  0   1  0  0       1 -1  0   0 -1  0   0 -1  1
                       0  0 -1   1  0 -1   0  1 -1      -1  1  0  -1  0  1  -1  0  0
           tolwfr      1.00000000E-20
            typat      1  2
              wtk1       0.00195    0.01563    0.01563    0.01563    0.00781    0.01172
                         0.04688    0.04688    0.04688    0.04688    0.04688    0.02344
                         0.01172    0.04688    0.04688    0.04688    0.02344    0.01172
                         0.04688    0.02344    0.00586    0.04688    0.09375    0.04688
                         0.04688    0.09375    0.04688    0.02344    0.01172
              wtk2       0.00195    0.01563    0.01563    0.01563    0.00781    0.01172
                         0.04688    0.04688    0.04688    0.04688    0.04688    0.02344
                         0.01172    0.04688    0.04688    0.04688    0.02344    0.01172
                         0.04688    0.02344    0.00586    0.04688    0.09375    0.04688
                         0.04688    0.09375    0.04688    0.02344    0.01172
              wtk3       0.00195    0.00195    0.00195    0.00195    0.00195    0.00195
                         0.00195    0.00195    0.00195    0.00195    0.00195    0.00195
                         0.00195    0.00195    0.00195    0.00195    0.00195    0.00195
                         0.00195    0.00195    0.00195    0.00195    0.00195    0.00195
                         0.00195    0.00195    0.00195    0.00195    0.00195    0.00195
                         0.00195    0.00195    0.00195    0.00195    0.00195    0.00195
                         0.00195    0.00195    0.00195    0.00195    0.00195    0.00195
                         0.00195    0.00195    0.00195    0.00195    0.00195    0.00195
                         0.00195    0.00195
              wtk4       0.00195    0.00195    0.00195    0.00195    0.00195    0.00195
                         0.00195    0.00195    0.00195    0.00195    0.00195    0.00195
                         0.00195    0.00195    0.00195    0.00195    0.00195    0.00195
                         0.00195    0.00195    0.00195    0.00195    0.00195    0.00195
                         0.00195    0.00195    0.00195    0.00195    0.00195    0.00195
                         0.00195    0.00195    0.00195    0.00195    0.00195    0.00195
                         0.00195    0.00195    0.00195    0.00195    0.00195    0.00195
                         0.00195    0.00195    0.00195    0.00195    0.00195    0.00195
                         0.00195    0.00195
              wtk5       0.00195    0.00195    0.00195    0.00195    0.00195    0.00195
                         0.00195    0.00195    0.00195    0.00195    0.00195    0.00195
                         0.00195    0.00195    0.00195    0.00195    0.00195    0.00195
                         0.00195    0.00195    0.00195    0.00195    0.00195    0.00195
                         0.00195    0.00195    0.00195    0.00195    0.00195    0.00195
                         0.00195    0.00195    0.00195    0.00195    0.00195    0.00195
                         0.00195    0.00195    0.00195    0.00195    0.00195    0.00195
                         0.00195    0.00195    0.00195    0.00195    0.00195    0.00195
                         0.00195    0.00195
              wtk6       0.00195    0.00195    0.00195    0.00195    0.00195    0.00195
                         0.00195    0.00195    0.00195    0.00195    0.00195    0.00195
                         0.00195    0.00195    0.00195    0.00195    0.00195    0.00195
                         0.00195    0.00195    0.00195    0.00195    0.00195    0.00195
                         0.00195    0.00195    0.00195    0.00195    0.00195    0.00195
                         0.00195    0.00195    0.00195    0.00195    0.00195    0.00195
                         0.00195    0.00195    0.00195    0.00195    0.00195    0.00195
                         0.00195    0.00195    0.00195    0.00195    0.00195    0.00195
                         0.00195    0.00195
                       outvars : Printing only first  50 k-points.
           xangst      0.0000000000E+00  0.0000000000E+00  0.0000000000E+00
                       1.4023196028E+00  1.4023196028E+00  1.4023196028E+00
            xcart      0.0000000000E+00  0.0000000000E+00  0.0000000000E+00
                       2.6500000000E+00  2.6500000000E+00  2.6500000000E+00
             xred      0.0000000000E+00  0.0000000000E+00  0.0000000000E+00
                       2.5000000000E-01  2.5000000000E-01  2.5000000000E-01
            znucl       31.00000   33.00000

================================================================================

 chkinp: Checking input parameters for consistency, jdtset=   1.

 chkinp: Checking input parameters for consistency, jdtset=   2.

 chkinp: Checking input parameters for consistency, jdtset=   3.

 chkinp: Checking input parameters for consistency, jdtset=   4.

 chkinp: Checking input parameters for consistency, jdtset=   5.

 chkinp: Checking input parameters for consistency, jdtset=   6.

================================================================================
== DATASET  1 ==================================================================
-   mpi_nproc: 6, omp_nthreads: -1 (-1 if OMP is not activated)


--- !DatasetInfo
iteration_state: {dtset: 1, }
dimensions: {natom: 2, nkpt: 29, mband: 4, nsppol: 1, nspinor: 1, nspden: 1, mpw: 848, }
cutoff_energies: {ecut:  15.0, pawecutdg:  -1.0, }
electrons: {nelect:   8.00000000E+00, charge:   0.00000000E+00, occopt:   1.00000000E+00, tsmear:   1.00000000E-02, }
meta: {optdriver: 0, ionmov: 0, optcell: 0, iscf: 7, paral_kgb: 0, }
...

 Exchange-correlation functional for the present dataset will be:
  LDA: new Teter (4/93) with spin-polarized option - ixc=1
 Citation for XC functional:
  S. Goedecker, M. Teter, J. Huetter, PRB 54, 1703 (1996)

 Real(R)+Recip(G) space primitive vectors, cartesian coordinates (Bohr,Bohr^-1):
 R(1)=  0.0000000  5.3000000  5.3000000  G(1)= -0.0943396  0.0943396  0.0943396
 R(2)=  5.3000000  0.0000000  5.3000000  G(2)=  0.0943396 -0.0943396  0.0943396
 R(3)=  5.3000000  5.3000000  0.0000000  G(3)=  0.0943396  0.0943396 -0.0943396
 Unit cell volume ucvol=  2.9775400E+02 bohr^3
 Angles (23,13,12)=  6.00000000E+01  6.00000000E+01  6.00000000E+01 degrees

 getcut: wavevector=  0.0000  0.0000  0.0000  ngfft=  30  30  30
         ecut(hartree)=     15.000   => boxcut(ratio)=   2.29827

 getcut : COMMENT -
  Note that boxcut > 2.2 ; recall that boxcut=Gcut(box)/Gcut(sphere) = 2
  is sufficient for exact treatment of convolution.
  Such a large boxcut is a waste : you could raise ecut
  e.g. ecut=   19.807723 Hartrees makes boxcut=2


--- Pseudopotential description ------------------------------------------------
- pspini: atom type   1  psp file is /home/nick/SoftwareFiles/abinit9.2/abinit-9.2.1/tests/Psps_for_tests/PseudosTM_pwteter/31ga.pspnc
- pspatm: opening atomic psp file    /home/nick/SoftwareFiles/abinit9.2/abinit-9.2.1/tests/Psps_for_tests/PseudosTM_pwteter/31ga.pspnc
-  Troullier-Martins psp for element  Ga        Thu Oct 27 17:36:43 EDT 1994
- 31.00000   3.00000    940714                znucl, zion, pspdat
    1    1    1    0      2001   0.00000      pspcod,pspxc,lmax,lloc,mmax,r2well
    0   6.570  15.885    0   1.9956558        l,e99.0,e99.9,nproj,rcpsp
   0.00000000   0.00000000   0.00000000   0.00000000     rms, ekb1, ekb2, epsatm
    1   2.122   7.249    1   1.9956558        l,e99.0,e99.9,nproj,rcpsp
   0.00000000   0.00000000   0.00000000   0.00000000     rms, ekb1, ekb2, epsatm
    2.57649862033350    0.14924926558032    2.22766011456380   rchrg,fchrg,qchrg
  pspatm : epsatm=   27.06235248
         --- l  ekb(1:nproj) -->
             1    2.537532
 pspatm: atomic psp has been read  and splines computed

- pspini: atom type   2  psp file is /home/nick/SoftwareFiles/abinit9.2/abinit-9.2.1/tests/Psps_for_tests/PseudosTM_pwteter/33as.pspnc
- pspatm: opening atomic psp file    /home/nick/SoftwareFiles/abinit9.2/abinit-9.2.1/tests/Psps_for_tests/PseudosTM_pwteter/33as.pspnc
-  Troullier-Martins psp for element  As        Thu Oct 27 17:37:14 EDT 1994
- 33.00000   5.00000    940714                znucl, zion, pspdat
    1    1    1    1      2001   0.00000      pspcod,pspxc,lmax,lloc,mmax,r2well
    0   4.772  10.829    1   2.5306160        l,e99.0,e99.9,nproj,rcpsp
   0.00000000   0.00000000   0.00000000   0.00000000     rms, ekb1, ekb2, epsatm
    1   2.745   5.580    0   2.5306160        l,e99.0,e99.9,nproj,rcpsp
   0.00000000   0.00000000   0.00000000   0.00000000     rms, ekb1, ekb2, epsatm
    2.05731715564010    0.36322996461007    2.76014815959125   rchrg,fchrg,qchrg
  pspatm : epsatm=   27.20579911
         --- l  ekb(1:nproj) -->
             0    0.838751
 pspatm: atomic psp has been read  and splines computed

   4.34145213E+02                                ecore*ucvol(ha*bohr**3)
--------------------------------------------------------------------------------

_setup2: Arith. and geom. avg. npw (full set) are     827.064     827.033

================================================================================

--- !BeginCycle
iteration_state: {dtset: 1, }
solver: {iscf: 7, nstep: 25, nline: 4, wfoptalg: 0, }
tolerances: {tolwfr: 1.00E-20, }
...

     iter   Etot(hartree)      deltaE(h)  residm     vres2
 ETOT  1  -10.734741319663    -1.073E+01 1.865E-02 1.804E+01
 ETOT  2  -10.743404837617    -8.664E-03 3.077E-04 6.822E-01
 ETOT  3  -10.743607188470    -2.024E-04 3.193E-05 6.888E-02
 ETOT  4  -10.743625208204    -1.802E-05 5.048E-06 1.085E-03
 ETOT  5  -10.743625356887    -1.487E-07 6.064E-07 6.241E-06
 ETOT  6  -10.743625362026    -5.139E-09 1.310E-07 1.047E-07
 ETOT  7  -10.743625362708    -6.822E-10 1.629E-08 6.054E-09
 ETOT  8  -10.743625362818    -1.092E-10 3.475E-09 2.539E-11
 ETOT  9  -10.743625362835    -1.744E-11 4.302E-10 8.392E-13
 ETOT 10  -10.743625362838    -2.894E-12 9.292E-11 2.424E-13
 ETOT 11  -10.743625362839    -6.484E-13 1.145E-11 4.410E-15
 ETOT 12  -10.743625362839    -7.638E-14 2.481E-12 1.126E-14
 ETOT 13  -10.743625362839    -6.395E-14 1.904E-13 4.441E-17
 ETOT 14  -10.743625362839    -4.086E-14 5.395E-14 4.649E-16
 ETOT 15  -10.743625362839     2.860E-13 6.271E-15 2.968E-16
 ETOT 16  -10.743625362839    -3.020E-14 1.347E-15 3.509E-16
 ETOT 17  -10.743625362839    -2.416E-13 1.651E-16 3.796E-16
 ETOT 18  -10.743625362839     1.332E-13 3.589E-17 3.878E-16
 ETOT 19  -10.743625362839     9.592E-14 4.402E-18 3.319E-16
 ETOT 20  -10.743625362839    -1.421E-13 9.776E-19 1.042E-15
 ETOT 21  -10.743625362839     1.457E-13 1.240E-19 5.497E-15
 ETOT 22  -10.743625362839    -1.226E-13 5.220E-20 1.458E-14
 ETOT 23  -10.743625362839     2.665E-14 6.914E-20 2.187E-18
 ETOT 24  -10.743625362839    -1.332E-13 8.886E-21 3.862E-17

 At SCF step   24   max residual=  8.89E-21 < tolwfr=  1.00E-20 =>converged.

 Cartesian components of stress tensor (hartree/bohr^3)
  sigma(1 1)=  2.14616682E-04  sigma(3 2)=  0.00000000E+00
  sigma(2 2)=  2.14616682E-04  sigma(3 1)=  0.00000000E+00
  sigma(3 3)=  2.14616682E-04  sigma(2 1)=  0.00000000E+00


--- !ResultsGS
iteration_state: {dtset: 1, }
comment   : Summary of ground state results
lattice_vectors:
- [  0.0000000,   5.3000000,   5.3000000, ]
- [  5.3000000,   0.0000000,   5.3000000, ]
- [  5.3000000,   5.3000000,   0.0000000, ]
lattice_lengths: [   7.49533,    7.49533,    7.49533, ]
lattice_angles: [ 60.000,  60.000,  60.000, ] # degrees, (23, 13, 12)
lattice_volume:   2.9775400E+02
convergence: {deltae: -1.332E-13, res2:  3.862E-17, residm:  8.886E-21, diffor: null, }
etotal    :  -1.07436254E+01
entropy   :   0.00000000E+00
fermie    :  -1.16510047E-02
cartesian_stress_tensor: # hartree/bohr^3
- [  2.14616682E-04,   0.00000000E+00,   0.00000000E+00, ]
- [  0.00000000E+00,   2.14616682E-04,   0.00000000E+00, ]
- [  0.00000000E+00,   0.00000000E+00,   2.14616682E-04, ]
pressure_GPa:  -6.3142E+00
xred      :
- [  0.0000E+00,   0.0000E+00,   0.0000E+00, Ga]
- [  2.5000E-01,   2.5000E-01,   2.5000E-01, As]
cartesian_forces: # hartree/bohr
- [ -0.00000000E+00,  -0.00000000E+00,  -0.00000000E+00, ]
- [ -0.00000000E+00,  -0.00000000E+00,  -0.00000000E+00, ]
force_length_stats: {min:   0.00000000E+00, max:   0.00000000E+00, mean:   0.00000000E+00, }
...

 Integrated electronic density in atomic spheres:
 ------------------------------------------------
 Atom  Sphere_radius  Integrated_density
    1        2.00000          1.09329449
    2        2.00000          2.42248546
================================================================================

 ----iterations are completed or convergence reached----

 Mean square residual over all n,k,spin=   33.251E-22; max=  88.858E-22
 reduced coordinates (array xred) for    2 atoms
       0.000000000000      0.000000000000      0.000000000000
       0.250000000000      0.250000000000      0.250000000000
 rms dE/dt=  0.0000E+00; max dE/dt=  0.0000E+00; dE/dt below (all hartree)
    1       0.000000000000      0.000000000000      0.000000000000
    2       0.000000000000      0.000000000000      0.000000000000

 cartesian coordinates (angstrom) at end:
    1      0.00000000000000     0.00000000000000     0.00000000000000
    2      1.40231960276350     1.40231960276350     1.40231960276350

 cartesian forces (hartree/bohr) at end:
    1     -0.00000000000000    -0.00000000000000    -0.00000000000000
    2     -0.00000000000000    -0.00000000000000    -0.00000000000000
 frms,max,avg= 0.0000000E+00 0.0000000E+00   0.000E+00  0.000E+00  0.000E+00 h/b

 cartesian forces (eV/Angstrom) at end:
    1     -0.00000000000000    -0.00000000000000    -0.00000000000000
    2     -0.00000000000000    -0.00000000000000    -0.00000000000000
 frms,max,avg= 0.0000000E+00 0.0000000E+00   0.000E+00  0.000E+00  0.000E+00 e/A
 length scales= 10.600000000000 10.600000000000 10.600000000000 bohr
              =  5.609278411054  5.609278411054  5.609278411054 angstroms
 prteigrs : about to open file toptic_1o_DS1_EIG
 Fermi (or HOMO) energy (hartree) =  -0.01165   Average Vxc (hartree)=  -0.35430
 Eigenvalues (hartree) for nkpt=  29  k points:
 kpt#   1, nband=  4, wtk=  0.00195, kpt=  0.0000  0.0000  0.0000 (reduced coord)
  -0.47244   -0.01165   -0.01165   -0.01165
 prteigrs : prtvol=0 or 1, do not print more k-points.


--- !EnergyTerms
iteration_state     : {dtset: 1, }
comment             : Components of total free energy in Hartree
kinetic             :  2.98008748757517E+00
hartree             :  7.83034658176804E-01
xc                  : -4.88474122975126E+00
Ewald energy        : -8.48789573682593E+00
psp_core            :  1.45806676895480E+00
local_psp           : -2.73760085595560E+00
non_local_psp       :  1.45423544987190E-01
total_energy        : -1.07436253628388E+01
total_energy_eV     : -2.92348913796239E+02
band_energy         : -1.60101839951738E+00
...


 Cartesian components of stress tensor (hartree/bohr^3)
  sigma(1 1)=  2.14616682E-04  sigma(3 2)=  0.00000000E+00
  sigma(2 2)=  2.14616682E-04  sigma(3 1)=  0.00000000E+00
  sigma(3 3)=  2.14616682E-04  sigma(2 1)=  0.00000000E+00

-Cartesian components of stress tensor (GPa)         [Pressure= -6.3142E+00 GPa]
- sigma(1 1)=  6.31423971E+00  sigma(3 2)=  0.00000000E+00
- sigma(2 2)=  6.31423971E+00  sigma(3 1)=  0.00000000E+00
- sigma(3 3)=  6.31423971E+00  sigma(2 1)=  0.00000000E+00

================================================================================
== DATASET  2 ==================================================================
-   mpi_nproc: 6, omp_nthreads: -1 (-1 if OMP is not activated)


--- !DatasetInfo
iteration_state: {dtset: 2, }
dimensions: {natom: 2, nkpt: 29, mband: 12, nsppol: 1, nspinor: 1, nspden: 1, mpw: 848, }
cutoff_energies: {ecut:  15.0, pawecutdg:  -1.0, }
electrons: {nelect:   8.00000000E+00, charge:   0.00000000E+00, occopt:   1.00000000E+00, tsmear:   1.00000000E-02, }
meta: {optdriver: 0, ionmov: 0, optcell: 0, iscf: -2, paral_kgb: 0, }
...

 mkfilename : getwfk/=0, take file _WFK from output of DATASET   1.

 mkfilename : getden/=0, take file _DEN from output of DATASET   1.

 Exchange-correlation functional for the present dataset will be:
  LDA: new Teter (4/93) with spin-polarized option - ixc=1
 Citation for XC functional:
  S. Goedecker, M. Teter, J. Huetter, PRB 54, 1703 (1996)

 Real(R)+Recip(G) space primitive vectors, cartesian coordinates (Bohr,Bohr^-1):
 R(1)=  0.0000000  5.3000000  5.3000000  G(1)= -0.0943396  0.0943396  0.0943396
 R(2)=  5.3000000  0.0000000  5.3000000  G(2)=  0.0943396 -0.0943396  0.0943396
 R(3)=  5.3000000  5.3000000  0.0000000  G(3)=  0.0943396  0.0943396 -0.0943396
 Unit cell volume ucvol=  2.9775400E+02 bohr^3
 Angles (23,13,12)=  6.00000000E+01  6.00000000E+01  6.00000000E+01 degrees

 getcut: wavevector=  0.0000  0.0000  0.0000  ngfft=  30  30  30
         ecut(hartree)=     15.000   => boxcut(ratio)=   2.29827

 getcut : COMMENT -
  Note that boxcut > 2.2 ; recall that boxcut=Gcut(box)/Gcut(sphere) = 2
  is sufficient for exact treatment of convolution.
  Such a large boxcut is a waste : you could raise ecut
  e.g. ecut=   19.807723 Hartrees makes boxcut=2

--------------------------------------------------------------------------------

-inwffil : will read wavefunctions from disk file toptic_1o_DS1_WFK

================================================================================
 prteigrs : about to open file toptic_1o_DS2_EIG
 Non-SCF case, kpt    1 (  0.00000  0.00000  0.00000), residuals and eigenvalues=
  5.46E-21  3.55E-21  6.74E-21  2.79E-21  5.74E-21  2.66E-21  9.54E-21  2.91E-21
  7.84E-21  5.32E-21  1.47E-20  5.78E-21
 -4.7244E-01 -1.1651E-02 -1.1651E-02 -1.1651E-02  1.7562E-02  1.2891E-01
  1.2891E-01  1.2891E-01  2.7423E-01  3.3046E-01  3.3046E-01  4.1471E-01
  prteigrs : nnsclo,ikpt=   25    1 max resid (incl. the buffer)=  1.46851E-20
 prteigrs : prtvol=0 or 1, do not print more k-points.

  prteigrs : nnsclo,ikpt=   25    2 max resid (incl. the buffer)=  1.68977E-16
  prteigrs : nnsclo,ikpt=   25    3 max resid (incl. the buffer)=  3.62963E-17
  prteigrs : nnsclo,ikpt=   25    4 max resid (incl. the buffer)=  1.52747E-09
  prteigrs : nnsclo,ikpt=   25    5 max resid (incl. the buffer)=  9.35534E-12
  prteigrs : nnsclo,ikpt=   25    6 max resid (incl. the buffer)=  8.64402E-14
  prteigrs : nnsclo,ikpt=   25    7 max resid (incl. the buffer)=  2.23597E-12
  prteigrs : nnsclo,ikpt=   25    8 max resid (incl. the buffer)=  1.96551E-10
  prteigrs : nnsclo,ikpt=   25    9 max resid (incl. the buffer)=  3.24011E-07
  prteigrs : nnsclo,ikpt=   25   10 max resid (incl. the buffer)=  7.43455E-13
  prteigrs : nnsclo,ikpt=   25   11 max resid (incl. the buffer)=  1.24681E-13
  prteigrs : nnsclo,ikpt=   25   12 max resid (incl. the buffer)=  6.10019E-12
  prteigrs : nnsclo,ikpt=   25   13 max resid (incl. the buffer)=  6.58839E-10
  prteigrs : nnsclo,ikpt=   25   14 max resid (incl. the buffer)=  7.70984E-07
  prteigrs : nnsclo,ikpt=   25   15 max resid (incl. the buffer)=  2.71742E-10
  prteigrs : nnsclo,ikpt=   25   16 max resid (incl. the buffer)=  2.88228E-09
  prteigrs : nnsclo,ikpt=   25   17 max resid (incl. the buffer)=  2.61369E-08
  prteigrs : nnsclo,ikpt=   25   18 max resid (incl. the buffer)=  2.56794E-10
  prteigrs : nnsclo,ikpt=   25   19 max resid (incl. the buffer)=  5.43512E-14
  prteigrs : nnsclo,ikpt=   25   20 max resid (incl. the buffer)=  5.29495E-06
  prteigrs : nnsclo,ikpt=   25   21 max resid (incl. the buffer)=  3.64349E-07
  prteigrs : nnsclo,ikpt=   25   22 max resid (incl. the buffer)=  2.72256E-13
  prteigrs : nnsclo,ikpt=   25   23 max resid (incl. the buffer)=  1.39983E-12
  prteigrs : nnsclo,ikpt=   25   24 max resid (incl. the buffer)=  5.60014E-19
  prteigrs : nnsclo,ikpt=   25   25 max resid (incl. the buffer)=  1.03023E-06
  prteigrs : nnsclo,ikpt=   25   26 max resid (incl. the buffer)=  6.53891E-13
  prteigrs : nnsclo,ikpt=   25   27 max resid (incl. the buffer)=  1.95898E-07
  prteigrs : nnsclo,ikpt=   25   28 max resid (incl. the buffer)=  5.13015E-16
  prteigrs : nnsclo,ikpt=   25   29 max resid (incl. the buffer)=  3.44788E-17


 scprqt:  WARNING -
  nstep=   25 was not enough non-SCF iterations to converge;
  maximum residual=  2.313E-13 exceeds tolwfr=  1.000E-20


--- !ResultsGS
iteration_state: {dtset: 2, }
comment   : Summary of ground state results
lattice_vectors:
- [  0.0000000,   5.3000000,   5.3000000, ]
- [  5.3000000,   0.0000000,   5.3000000, ]
- [  5.3000000,   5.3000000,   0.0000000, ]
lattice_lengths: [   7.49533,    7.49533,    7.49533, ]
lattice_angles: [ 60.000,  60.000,  60.000, ] # degrees, (23, 13, 12)
lattice_volume:   2.9775400E+02
convergence: {deltae:  0.000E+00, res2:  0.000E+00, residm:  2.313E-13, diffor:  0.000E+00, }
etotal    :  -1.07436254E+01
entropy   :   0.00000000E+00
fermie    :  -1.16510047E-02
cartesian_stress_tensor: null
pressure_GPa: null
xred      :
- [  0.0000E+00,   0.0000E+00,   0.0000E+00, Ga]
- [  2.5000E-01,   2.5000E-01,   2.5000E-01, As]
cartesian_forces: null
force_length_stats: {min: null, max: null, mean: null, }
...

 Integrated electronic density in atomic spheres:
 ------------------------------------------------
 Atom  Sphere_radius  Integrated_density
    1        2.00000          1.09329449
    2        2.00000          2.42248546
================================================================================

 ----iterations are completed or convergence reached----

 Mean square residual over all n,k,spin=   79.781E-17; max=  23.130E-14
 reduced coordinates (array xred) for    2 atoms
       0.000000000000      0.000000000000      0.000000000000
       0.250000000000      0.250000000000      0.250000000000

 cartesian coordinates (angstrom) at end:
    1      0.00000000000000     0.00000000000000     0.00000000000000
    2      1.40231960276350     1.40231960276350     1.40231960276350
 length scales= 10.600000000000 10.600000000000 10.600000000000 bohr
              =  5.609278411054  5.609278411054  5.609278411054 angstroms
 prteigrs : about to open file toptic_1o_DS2_EIG
 Eigenvalues (hartree) for nkpt=  29  k points:
 kpt#   1, nband= 12, wtk=  0.00195, kpt=  0.0000  0.0000  0.0000 (reduced coord)
  -0.47244   -0.01165   -0.01165   -0.01165    0.01756    0.12891    0.12891    0.12891
   0.27423    0.33046    0.33046    0.41471
 prteigrs : prtvol=0 or 1, do not print more k-points.


================================================================================
== DATASET  3 ==================================================================
-   mpi_nproc: 6, omp_nthreads: -1 (-1 if OMP is not activated)


--- !DatasetInfo
iteration_state: {dtset: 3, }
dimensions: {natom: 2, nkpt: 512, mband: 12, nsppol: 1, nspinor: 1, nspden: 1, mpw: 848, }
cutoff_energies: {ecut:  15.0, pawecutdg:  -1.0, }
electrons: {nelect:   8.00000000E+00, charge:   0.00000000E+00, occopt:   1.00000000E+00, tsmear:   1.00000000E-02, }
meta: {optdriver: 0, ionmov: 0, optcell: 0, iscf: -2, paral_kgb: 0, }
...

 mkfilename : getwfk/=0, take file _WFK from output of DATASET   2.

 mkfilename : getden/=0, take file _DEN from output of DATASET   1.

 Exchange-correlation functional for the present dataset will be:
  LDA: new Teter (4/93) with spin-polarized option - ixc=1
 Citation for XC functional:
  S. Goedecker, M. Teter, J. Huetter, PRB 54, 1703 (1996)

 Real(R)+Recip(G) space primitive vectors, cartesian coordinates (Bohr,Bohr^-1):
 R(1)=  0.0000000  5.3000000  5.3000000  G(1)= -0.0943396  0.0943396  0.0943396
 R(2)=  5.3000000  0.0000000  5.3000000  G(2)=  0.0943396 -0.0943396  0.0943396
 R(3)=  5.3000000  5.3000000  0.0000000  G(3)=  0.0943396  0.0943396 -0.0943396
 Unit cell volume ucvol=  2.9775400E+02 bohr^3
 Angles (23,13,12)=  6.00000000E+01  6.00000000E+01  6.00000000E+01 degrees

 getcut: wavevector=  0.0000  0.0000  0.0000  ngfft=  30  30  30
         ecut(hartree)=     15.000   => boxcut(ratio)=   2.29827

 getcut : COMMENT -
  Note that boxcut > 2.2 ; recall that boxcut=Gcut(box)/Gcut(sphere) = 2
  is sufficient for exact treatment of convolution.
  Such a large boxcut is a waste : you could raise ecut
  e.g. ecut=   19.807723 Hartrees makes boxcut=2

--------------------------------------------------------------------------------

-inwffil : will read wavefunctions from disk file toptic_1o_DS2_WFK

================================================================================
 prteigrs : about to open file toptic_1o_DS3_EIG
 Non-SCF case, kpt    1 (  0.00000  0.00000  0.00000), residuals and eigenvalues=
  5.46E-21  3.55E-21  6.74E-21  2.79E-21  5.74E-21  2.66E-21  9.54E-21  2.91E-21
  7.84E-21  5.32E-21  7.91E-21  5.78E-21
 -4.7244E-01 -1.1651E-02 -1.1651E-02 -1.1651E-02  1.7562E-02  1.2891E-01
  1.2891E-01  1.2891E-01  2.7423E-01  3.3046E-01  3.3046E-01  4.1471E-01
 prteigrs : prtvol=0 or 1, do not print more k-points.

  prteigrs : nnsclo,ikpt=   25    2 max resid (incl. the buffer)=  6.36534E-18
  prteigrs : nnsclo,ikpt=   25    3 max resid (incl. the buffer)=  1.09200E-18
  prteigrs : nnsclo,ikpt=   25    4 max resid (incl. the buffer)=  1.32106E-10
  prteigrs : nnsclo,ikpt=   25    5 max resid (incl. the buffer)=  2.28483E-17
  prteigrs : nnsclo,ikpt=   25    6 max resid (incl. the buffer)=  1.32106E-10
  prteigrs : nnsclo,ikpt=   25    7 max resid (incl. the buffer)=  1.09200E-18
  prteigrs : nnsclo,ikpt=   25    8 max resid (incl. the buffer)=  6.36534E-18
  prteigrs : nnsclo,ikpt=   25    9 max resid (incl. the buffer)=  6.36229E-18
  prteigrs : nnsclo,ikpt=   25   10 max resid (incl. the buffer)=  1.17326E-15
  prteigrs : nnsclo,ikpt=   25   11 max resid (incl. the buffer)=  4.88184E-14
  prteigrs : nnsclo,ikpt=   25   12 max resid (incl. the buffer)=  7.90614E-11
  prteigrs : nnsclo,ikpt=   25   13 max resid (incl. the buffer)=  6.26557E-07
  prteigrs : nnsclo,ikpt=   25   14 max resid (incl. the buffer)=  9.89253E-14
  prteigrs : nnsclo,ikpt=   25   15 max resid (incl. the buffer)=  4.79971E-15
  prteigrs : nnsclo,ikpt=   25   16 max resid (incl. the buffer)=  2.80085E-12
  prteigrs : nnsclo,ikpt=   25   17 max resid (incl. the buffer)=  1.09192E-18
  prteigrs : nnsclo,ikpt=   25   18 max resid (incl. the buffer)=  4.88176E-14
  prteigrs : nnsclo,ikpt=   25   19 max resid (incl. the buffer)=  8.35024E-12
  prteigrs : nnsclo,ikpt=   25   20 max resid (incl. the buffer)=  6.02113E-08
  prteigrs : nnsclo,ikpt=   25   21 max resid (incl. the buffer)=  8.45250E-10
  prteigrs : nnsclo,ikpt=   25   22 max resid (incl. the buffer)=  2.83366E-10
  prteigrs : nnsclo,ikpt=   25   23 max resid (incl. the buffer)=  8.13536E-09
  prteigrs : nnsclo,ikpt=   25   24 max resid (incl. the buffer)=  4.79958E-15
  prteigrs : nnsclo,ikpt=   25   25 max resid (incl. the buffer)=  1.32106E-10
  prteigrs : nnsclo,ikpt=   25   26 max resid (incl. the buffer)=  7.90614E-11
  prteigrs : nnsclo,ikpt=   25   27 max resid (incl. the buffer)=  6.02113E-08
  prteigrs : nnsclo,ikpt=   25   28 max resid (incl. the buffer)=  2.47390E-11
  prteigrs : nnsclo,ikpt=   25   29 max resid (incl. the buffer)=  6.60534E-15
  prteigrs : nnsclo,ikpt=   25   30 max resid (incl. the buffer)=  2.19863E-06
  prteigrs : nnsclo,ikpt=   25   31 max resid (incl. the buffer)=  2.83366E-10
  prteigrs : nnsclo,ikpt=   25   32 max resid (incl. the buffer)=  9.89256E-14
  prteigrs : nnsclo,ikpt=   25   33 max resid (incl. the buffer)=  4.47541E-16
  prteigrs : nnsclo,ikpt=   25   34 max resid (incl. the buffer)=  6.26557E-07
  prteigrs : nnsclo,ikpt=   25   35 max resid (incl. the buffer)=  8.45251E-10
  prteigrs : nnsclo,ikpt=   25   36 max resid (incl. the buffer)=  6.60514E-15
  prteigrs : nnsclo,ikpt=   25   37 max resid (incl. the buffer)=  2.82486E-08
  prteigrs : nnsclo,ikpt=   25   38 max resid (incl. the buffer)=  6.60514E-15
  prteigrs : nnsclo,ikpt=   25   39 max resid (incl. the buffer)=  8.45251E-10
  prteigrs : nnsclo,ikpt=   25   40 max resid (incl. the buffer)=  6.26557E-07
  prteigrs : nnsclo,ikpt=   25   41 max resid (incl. the buffer)=  1.32106E-10
  prteigrs : nnsclo,ikpt=   25   42 max resid (incl. the buffer)=  9.89256E-14
  prteigrs : nnsclo,ikpt=   25   43 max resid (incl. the buffer)=  2.83366E-10
  prteigrs : nnsclo,ikpt=   25   44 max resid (incl. the buffer)=  2.19863E-06
  prteigrs : nnsclo,ikpt=   25   45 max resid (incl. the buffer)=  6.60534E-15
  prteigrs : nnsclo,ikpt=   25   46 max resid (incl. the buffer)=  2.47390E-11
  prteigrs : nnsclo,ikpt=   25   47 max resid (incl. the buffer)=  6.02113E-08
  prteigrs : nnsclo,ikpt=   25   48 max resid (incl. the buffer)=  7.90614E-11
  prteigrs : nnsclo,ikpt=   25   49 max resid (incl. the buffer)=  1.09192E-18
  prteigrs : nnsclo,ikpt=   25   50 max resid (incl. the buffer)=  4.79958E-15
  prteigrs : nnsclo,ikpt=   25   51 max resid (incl. the buffer)=  8.13536E-09
  prteigrs : nnsclo,ikpt=   25   52 max resid (incl. the buffer)=  2.83366E-10
  prteigrs : nnsclo,ikpt=   25   53 max resid (incl. the buffer)=  8.45250E-10
  prteigrs : nnsclo,ikpt=   25   54 max resid (incl. the buffer)=  6.02113E-08
  prteigrs : nnsclo,ikpt=   25   55 max resid (incl. the buffer)=  8.35025E-12
  prteigrs : nnsclo,ikpt=   25   56 max resid (incl. the buffer)=  4.88176E-14
  prteigrs : nnsclo,ikpt=   25   57 max resid (incl. the buffer)=  6.36229E-18
  prteigrs : nnsclo,ikpt=   25   58 max resid (incl. the buffer)=  2.80084E-12
  prteigrs : nnsclo,ikpt=   25   59 max resid (incl. the buffer)=  4.79971E-15
  prteigrs : nnsclo,ikpt=   25   60 max resid (incl. the buffer)=  9.89253E-14
  prteigrs : nnsclo,ikpt=   25   61 max resid (incl. the buffer)=  6.26557E-07
  prteigrs : nnsclo,ikpt=   25   62 max resid (incl. the buffer)=  7.90614E-11
  prteigrs : nnsclo,ikpt=   25   63 max resid (incl. the buffer)=  4.88184E-14
  prteigrs : nnsclo,ikpt=   25   64 max resid (incl. the buffer)=  1.17335E-15
  prteigrs : nnsclo,ikpt=   25   65 max resid (incl. the buffer)=  6.36050E-18
  prteigrs : nnsclo,ikpt=   25   66 max resid (incl. the buffer)=  1.17328E-15
  prteigrs : nnsclo,ikpt=   25   67 max resid (incl. the buffer)=  4.88181E-14
  prteigrs : nnsclo,ikpt=   25   68 max resid (incl. the buffer)=  7.90614E-11
  prteigrs : nnsclo,ikpt=   25   69 max resid (incl. the buffer)=  6.26557E-07
  prteigrs : nnsclo,ikpt=   25   70 max resid (incl. the buffer)=  9.89251E-14
  prteigrs : nnsclo,ikpt=   25   71 max resid (incl. the buffer)=  4.79975E-15
  prteigrs : nnsclo,ikpt=   25   72 max resid (incl. the buffer)=  2.80085E-12
  prteigrs : nnsclo,ikpt=   25   73 max resid (incl. the buffer)=  1.17329E-15
  prteigrs : nnsclo,ikpt=   25   74 max resid (incl. the buffer)=  6.36354E-18
  prteigrs : nnsclo,ikpt=   25   75 max resid (incl. the buffer)=  2.80084E-12
  prteigrs : nnsclo,ikpt=   25   76 max resid (incl. the buffer)=  4.79956E-15
  prteigrs : nnsclo,ikpt=   25   77 max resid (incl. the buffer)=  9.89260E-14
  prteigrs : nnsclo,ikpt=   25   78 max resid (incl. the buffer)=  6.26557E-07
  prteigrs : nnsclo,ikpt=   25   79 max resid (incl. the buffer)=  7.90614E-11
  prteigrs : nnsclo,ikpt=   25   80 max resid (incl. the buffer)=  4.88177E-14
  prteigrs : nnsclo,ikpt=   25   81 max resid (incl. the buffer)=  4.88176E-14
  prteigrs : nnsclo,ikpt=   25   82 max resid (incl. the buffer)=  2.80085E-12
  prteigrs : nnsclo,ikpt=   25   83 max resid (incl. the buffer)=  4.88183E-14
  prteigrs : nnsclo,ikpt=   25   84 max resid (incl. the buffer)=  7.80310E-15
  prteigrs : nnsclo,ikpt=   25   85 max resid (incl. the buffer)=  1.63213E-13
  prteigrs : nnsclo,ikpt=   25   86 max resid (incl. the buffer)=  9.29387E-20
  prteigrs : nnsclo,ikpt=   25   87 max resid (incl. the buffer)=  1.63214E-13
  prteigrs : nnsclo,ikpt=   25   88 max resid (incl. the buffer)=  7.80331E-15
  prteigrs : nnsclo,ikpt=   25   89 max resid (incl. the buffer)=  7.90615E-11
  prteigrs : nnsclo,ikpt=   25   90 max resid (incl. the buffer)=  4.79962E-15
  prteigrs : nnsclo,ikpt=   25   91 max resid (incl. the buffer)=  7.80325E-15
  prteigrs : nnsclo,ikpt=   25   92 max resid (incl. the buffer)=  6.02113E-08
  prteigrs : nnsclo,ikpt=   25   93 max resid (incl. the buffer)=  1.28932E-06
  prteigrs : nnsclo,ikpt=   25   94 max resid (incl. the buffer)=  5.08598E-14
  prteigrs : nnsclo,ikpt=   25   95 max resid (incl. the buffer)=  2.41373E-08
  prteigrs : nnsclo,ikpt=   25   96 max resid (incl. the buffer)=  1.63214E-13
  prteigrs : nnsclo,ikpt=   25   97 max resid (incl. the buffer)=  6.26557E-07
  prteigrs : nnsclo,ikpt=   25   98 max resid (incl. the buffer)=  9.89254E-14
  prteigrs : nnsclo,ikpt=   25   99 max resid (incl. the buffer)=  1.63214E-13
  prteigrs : nnsclo,ikpt=   25  100 max resid (incl. the buffer)=  1.28932E-06
  prteigrs : nnsclo,ikpt=   25  101 max resid (incl. the buffer)=  6.60531E-15
  prteigrs : nnsclo,ikpt=   25  102 max resid (incl. the buffer)=  6.27567E-18
  prteigrs : nnsclo,ikpt=   25  103 max resid (incl. the buffer)=  5.08601E-14
  prteigrs : nnsclo,ikpt=   25  104 max resid (incl. the buffer)=  9.28171E-20
  prteigrs : nnsclo,ikpt=   25  105 max resid (incl. the buffer)=  9.89251E-14
  prteigrs : nnsclo,ikpt=   25  106 max resid (incl. the buffer)=  6.26557E-07
  prteigrs : nnsclo,ikpt=   25  107 max resid (incl. the buffer)=  9.42187E-20
  prteigrs : nnsclo,ikpt=   25  108 max resid (incl. the buffer)=  5.08593E-14
  prteigrs : nnsclo,ikpt=   25  109 max resid (incl. the buffer)=  6.27251E-18
  prteigrs : nnsclo,ikpt=   25  110 max resid (incl. the buffer)=  6.60511E-15
  prteigrs : nnsclo,ikpt=   25  111 max resid (incl. the buffer)=  1.28932E-06
  prteigrs : nnsclo,ikpt=   25  112 max resid (incl. the buffer)=  1.63213E-13
  prteigrs : nnsclo,ikpt=   25  113 max resid (incl. the buffer)=  4.79967E-15
  prteigrs : nnsclo,ikpt=   25  114 max resid (incl. the buffer)=  7.90615E-11
  prteigrs : nnsclo,ikpt=   25  115 max resid (incl. the buffer)=  1.63214E-13
  prteigrs : nnsclo,ikpt=   25  116 max resid (incl. the buffer)=  2.41373E-08
  prteigrs : nnsclo,ikpt=   25  117 max resid (incl. the buffer)=  5.08596E-14
  prteigrs : nnsclo,ikpt=   25  118 max resid (incl. the buffer)=  1.28932E-06
  prteigrs : nnsclo,ikpt=   25  119 max resid (incl. the buffer)=  6.02113E-08
  prteigrs : nnsclo,ikpt=   25  120 max resid (incl. the buffer)=  7.80318E-15
  prteigrs : nnsclo,ikpt=   25  121 max resid (incl. the buffer)=  2.80085E-12
  prteigrs : nnsclo,ikpt=   25  122 max resid (incl. the buffer)=  4.88173E-14
  prteigrs : nnsclo,ikpt=   25  123 max resid (incl. the buffer)=  7.80313E-15
  prteigrs : nnsclo,ikpt=   25  124 max resid (incl. the buffer)=  1.63214E-13
  prteigrs : nnsclo,ikpt=   25  125 max resid (incl. the buffer)=  9.30297E-20
  prteigrs : nnsclo,ikpt=   25  126 max resid (incl. the buffer)=  1.63213E-13
  prteigrs : nnsclo,ikpt=   25  127 max resid (incl. the buffer)=  7.80334E-15
  prteigrs : nnsclo,ikpt=   25  128 max resid (incl. the buffer)=  4.88175E-14
  prteigrs : nnsclo,ikpt=   25  129 max resid (incl. the buffer)=  1.09210E-18
  prteigrs : nnsclo,ikpt=   25  130 max resid (incl. the buffer)=  4.88179E-14
  prteigrs : nnsclo,ikpt=   25  131 max resid (incl. the buffer)=  8.35022E-12
  prteigrs : nnsclo,ikpt=   25  132 max resid (incl. the buffer)=  6.02113E-08
  prteigrs : nnsclo,ikpt=   25  133 max resid (incl. the buffer)=  8.45250E-10
  prteigrs : nnsclo,ikpt=   25  134 max resid (incl. the buffer)=  2.83366E-10
  prteigrs : nnsclo,ikpt=   25  135 max resid (incl. the buffer)=  8.13536E-09
  prteigrs : nnsclo,ikpt=   25  136 max resid (incl. the buffer)=  4.79952E-15
  prteigrs : nnsclo,ikpt=   25  137 max resid (incl. the buffer)=  4.88182E-14
  prteigrs : nnsclo,ikpt=   25  138 max resid (incl. the buffer)=  2.80084E-12
  prteigrs : nnsclo,ikpt=   25  139 max resid (incl. the buffer)=  4.88187E-14
  prteigrs : nnsclo,ikpt=   25  140 max resid (incl. the buffer)=  7.80304E-15
  prteigrs : nnsclo,ikpt=   25  141 max resid (incl. the buffer)=  1.63213E-13
  prteigrs : nnsclo,ikpt=   25  142 max resid (incl. the buffer)=  9.17210E-20
  prteigrs : nnsclo,ikpt=   25  143 max resid (incl. the buffer)=  1.63213E-13
  prteigrs : nnsclo,ikpt=   25  144 max resid (incl. the buffer)=  7.80337E-15
  prteigrs : nnsclo,ikpt=   25  145 max resid (incl. the buffer)=  8.35026E-12
  prteigrs : nnsclo,ikpt=   25  146 max resid (incl. the buffer)=  4.88182E-14
  prteigrs : nnsclo,ikpt=   25  147 max resid (incl. the buffer)=  1.09217E-18
  prteigrs : nnsclo,ikpt=   25  148 max resid (incl. the buffer)=  4.79946E-15
  prteigrs : nnsclo,ikpt=   25  149 max resid (incl. the buffer)=  8.13536E-09
  prteigrs : nnsclo,ikpt=   25  150 max resid (incl. the buffer)=  2.83366E-10
  prteigrs : nnsclo,ikpt=   25  151 max resid (incl. the buffer)=  8.45251E-10
  prteigrs : nnsclo,ikpt=   25  152 max resid (incl. the buffer)=  6.02113E-08
  prteigrs : nnsclo,ikpt=   25  153 max resid (incl. the buffer)=  6.02113E-08
  prteigrs : nnsclo,ikpt=   25  154 max resid (incl. the buffer)=  7.80315E-15
  prteigrs : nnsclo,ikpt=   25  155 max resid (incl. the buffer)=  4.79965E-15
  prteigrs : nnsclo,ikpt=   25  156 max resid (incl. the buffer)=  7.90614E-11
  prteigrs : nnsclo,ikpt=   25  157 max resid (incl. the buffer)=  1.63214E-13
  prteigrs : nnsclo,ikpt=   25  158 max resid (incl. the buffer)=  2.41373E-08
  prteigrs : nnsclo,ikpt=   25  159 max resid (incl. the buffer)=  5.08585E-14
  prteigrs : nnsclo,ikpt=   25  160 max resid (incl. the buffer)=  1.28932E-06
  prteigrs : nnsclo,ikpt=   25  161 max resid (incl. the buffer)=  8.45251E-10
  prteigrs : nnsclo,ikpt=   25  162 max resid (incl. the buffer)=  1.63214E-13
  prteigrs : nnsclo,ikpt=   25  163 max resid (incl. the buffer)=  8.13536E-09
  prteigrs : nnsclo,ikpt=   25  164 max resid (incl. the buffer)=  1.63214E-13
  prteigrs : nnsclo,ikpt=   25  165 max resid (incl. the buffer)=  8.45250E-10
  prteigrs : nnsclo,ikpt=   25  166 max resid (incl. the buffer)=  5.08596E-14
  prteigrs : nnsclo,ikpt=   25  167 max resid (incl. the buffer)=  4.57796E-19
  prteigrs : nnsclo,ikpt=   25  168 max resid (incl. the buffer)=  5.08583E-14
  prteigrs : nnsclo,ikpt=   25  169 max resid (incl. the buffer)=  2.83366E-10
  prteigrs : nnsclo,ikpt=   25  170 max resid (incl. the buffer)=  9.18536E-20
  prteigrs : nnsclo,ikpt=   25  171 max resid (incl. the buffer)=  2.83366E-10
  prteigrs : nnsclo,ikpt=   25  172 max resid (incl. the buffer)=  2.41373E-08
  prteigrs : nnsclo,ikpt=   25  173 max resid (incl. the buffer)=  5.08594E-14
  prteigrs : nnsclo,ikpt=   25  174 max resid (incl. the buffer)=  2.19863E-06
  prteigrs : nnsclo,ikpt=   25  175 max resid (incl. the buffer)=  5.08600E-14
  prteigrs : nnsclo,ikpt=   25  176 max resid (incl. the buffer)=  2.41373E-08
  prteigrs : nnsclo,ikpt=   25  177 max resid (incl. the buffer)=  8.13536E-09
  prteigrs : nnsclo,ikpt=   25  178 max resid (incl. the buffer)=  1.63213E-13
  prteigrs : nnsclo,ikpt=   25  179 max resid (incl. the buffer)=  8.45252E-10
  prteigrs : nnsclo,ikpt=   25  180 max resid (incl. the buffer)=  5.08584E-14
  prteigrs : nnsclo,ikpt=   25  181 max resid (incl. the buffer)=  4.56118E-19
  prteigrs : nnsclo,ikpt=   25  182 max resid (incl. the buffer)=  5.08591E-14
  prteigrs : nnsclo,ikpt=   25  183 max resid (incl. the buffer)=  8.45251E-10
  prteigrs : nnsclo,ikpt=   25  184 max resid (incl. the buffer)=  1.63213E-13
  prteigrs : nnsclo,ikpt=   25  185 max resid (incl. the buffer)=  4.79957E-15
  prteigrs : nnsclo,ikpt=   25  186 max resid (incl. the buffer)=  7.80326E-15
  prteigrs : nnsclo,ikpt=   25  187 max resid (incl. the buffer)=  6.02113E-08
  prteigrs : nnsclo,ikpt=   25  188 max resid (incl. the buffer)=  1.28932E-06
  prteigrs : nnsclo,ikpt=   25  189 max resid (incl. the buffer)=  5.08587E-14
  prteigrs : nnsclo,ikpt=   25  190 max resid (incl. the buffer)=  2.41373E-08
  prteigrs : nnsclo,ikpt=   25  191 max resid (incl. the buffer)=  1.63214E-13
  prteigrs : nnsclo,ikpt=   25  192 max resid (incl. the buffer)=  7.90614E-11
  prteigrs : nnsclo,ikpt=   25  193 max resid (incl. the buffer)=  1.32106E-10
  prteigrs : nnsclo,ikpt=   25  194 max resid (incl. the buffer)=  7.90614E-11
  prteigrs : nnsclo,ikpt=   25  195 max resid (incl. the buffer)=  6.02113E-08
  prteigrs : nnsclo,ikpt=   25  196 max resid (incl. the buffer)=  2.47390E-11
  prteigrs : nnsclo,ikpt=   25  197 max resid (incl. the buffer)=  6.60535E-15
  prteigrs : nnsclo,ikpt=   25  198 max resid (incl. the buffer)=  2.19863E-06
  prteigrs : nnsclo,ikpt=   25  199 max resid (incl. the buffer)=  2.83366E-10
  prteigrs : nnsclo,ikpt=   25  200 max resid (incl. the buffer)=  9.89258E-14
  prteigrs : nnsclo,ikpt=   25  201 max resid (incl. the buffer)=  7.90614E-11
  prteigrs : nnsclo,ikpt=   25  202 max resid (incl. the buffer)=  4.79969E-15
  prteigrs : nnsclo,ikpt=   25  203 max resid (incl. the buffer)=  7.80335E-15
  prteigrs : nnsclo,ikpt=   25  204 max resid (incl. the buffer)=  6.02113E-08
  prteigrs : nnsclo,ikpt=   25  205 max resid (incl. the buffer)=  1.28932E-06
  prteigrs : nnsclo,ikpt=   25  206 max resid (incl. the buffer)=  5.08597E-14
  prteigrs : nnsclo,ikpt=   25  207 max resid (incl. the buffer)=  2.41373E-08
  prteigrs : nnsclo,ikpt=   25  208 max resid (incl. the buffer)=  1.63214E-13
  prteigrs : nnsclo,ikpt=   25  209 max resid (incl. the buffer)=  6.02113E-08
  prteigrs : nnsclo,ikpt=   25  210 max resid (incl. the buffer)=  7.80330E-15
  prteigrs : nnsclo,ikpt=   25  211 max resid (incl. the buffer)=  4.79982E-15
  prteigrs : nnsclo,ikpt=   25  212 max resid (incl. the buffer)=  7.90614E-11
  prteigrs : nnsclo,ikpt=   25  213 max resid (incl. the buffer)=  1.63214E-13
  prteigrs : nnsclo,ikpt=   25  214 max resid (incl. the buffer)=  2.41373E-08
  prteigrs : nnsclo,ikpt=   25  215 max resid (incl. the buffer)=  5.08593E-14
  prteigrs : nnsclo,ikpt=   25  216 max resid (incl. the buffer)=  1.28932E-06
  prteigrs : nnsclo,ikpt=   25  217 max resid (incl. the buffer)=  2.47390E-11
  prteigrs : nnsclo,ikpt=   25  218 max resid (incl. the buffer)=  6.02113E-08
  prteigrs : nnsclo,ikpt=   25  219 max resid (incl. the buffer)=  7.90614E-11
  prteigrs : nnsclo,ikpt=   25  220 max resid (incl. the buffer)=  1.32106E-10
  prteigrs : nnsclo,ikpt=   25  221 max resid (incl. the buffer)=  9.89264E-14
  prteigrs : nnsclo,ikpt=   25  222 max resid (incl. the buffer)=  2.83366E-10
  prteigrs : nnsclo,ikpt=   25  223 max resid (incl. the buffer)=  2.19863E-06
  prteigrs : nnsclo,ikpt=   25  224 max resid (incl. the buffer)=  6.60516E-15
  prteigrs : nnsclo,ikpt=   25  225 max resid (incl. the buffer)=  6.60513E-15
  prteigrs : nnsclo,ikpt=   25  226 max resid (incl. the buffer)=  1.28932E-06
  prteigrs : nnsclo,ikpt=   25  227 max resid (incl. the buffer)=  1.63214E-13
  prteigrs : nnsclo,ikpt=   25  228 max resid (incl. the buffer)=  9.89255E-14
  prteigrs : nnsclo,ikpt=   25  229 max resid (incl. the buffer)=  6.26557E-07
  prteigrs : nnsclo,ikpt=   25  230 max resid (incl. the buffer)=  9.35548E-20
  prteigrs : nnsclo,ikpt=   25  231 max resid (incl. the buffer)=  5.08588E-14
  prteigrs : nnsclo,ikpt=   25  232 max resid (incl. the buffer)=  6.27421E-18
  prteigrs : nnsclo,ikpt=   25  233 max resid (incl. the buffer)=  2.19863E-06
  prteigrs : nnsclo,ikpt=   25  234 max resid (incl. the buffer)=  5.08592E-14
  prteigrs : nnsclo,ikpt=   25  235 max resid (incl. the buffer)=  2.41373E-08
  prteigrs : nnsclo,ikpt=   25  236 max resid (incl. the buffer)=  2.83365E-10
  prteigrs : nnsclo,ikpt=   25  238 max resid (incl. the buffer)=  2.83366E-10
  prteigrs : nnsclo,ikpt=   25  239 max resid (incl. the buffer)=  2.41373E-08
  prteigrs : nnsclo,ikpt=   25  240 max resid (incl. the buffer)=  5.08587E-14
  prteigrs : nnsclo,ikpt=   25  241 max resid (incl. the buffer)=  2.83366E-10
  prteigrs : nnsclo,ikpt=   25  242 max resid (incl. the buffer)=  2.41373E-08
  prteigrs : nnsclo,ikpt=   25  243 max resid (incl. the buffer)=  5.08600E-14
  prteigrs : nnsclo,ikpt=   25  244 max resid (incl. the buffer)=  2.19863E-06
  prteigrs : nnsclo,ikpt=   25  245 max resid (incl. the buffer)=  5.08590E-14
  prteigrs : nnsclo,ikpt=   25  246 max resid (incl. the buffer)=  2.41373E-08
  prteigrs : nnsclo,ikpt=   25  247 max resid (incl. the buffer)=  2.83366E-10
  prteigrs : nnsclo,ikpt=   25  249 max resid (incl. the buffer)=  9.89255E-14
  prteigrs : nnsclo,ikpt=   25  250 max resid (incl. the buffer)=  1.63214E-13
  prteigrs : nnsclo,ikpt=   25  251 max resid (incl. the buffer)=  1.28932E-06
  prteigrs : nnsclo,ikpt=   25  252 max resid (incl. the buffer)=  6.60514E-15
  prteigrs : nnsclo,ikpt=   25  253 max resid (incl. the buffer)=  6.27585E-18
  prteigrs : nnsclo,ikpt=   25  254 max resid (incl. the buffer)=  5.08588E-14
  prteigrs : nnsclo,ikpt=   25  256 max resid (incl. the buffer)=  6.26557E-07
  prteigrs : nnsclo,ikpt=   25  257 max resid (incl. the buffer)=  2.28481E-17
  prteigrs : nnsclo,ikpt=   25  258 max resid (incl. the buffer)=  6.26557E-07
  prteigrs : nnsclo,ikpt=   25  259 max resid (incl. the buffer)=  8.45250E-10
  prteigrs : nnsclo,ikpt=   25  260 max resid (incl. the buffer)=  6.60533E-15
  prteigrs : nnsclo,ikpt=   25  261 max resid (incl. the buffer)=  2.82486E-08
  prteigrs : nnsclo,ikpt=   25  262 max resid (incl. the buffer)=  6.60533E-15
  prteigrs : nnsclo,ikpt=   25  263 max resid (incl. the buffer)=  8.45250E-10
  prteigrs : nnsclo,ikpt=   25  264 max resid (incl. the buffer)=  6.26557E-07
  prteigrs : nnsclo,ikpt=   25  265 max resid (incl. the buffer)=  6.26557E-07
  prteigrs : nnsclo,ikpt=   25  266 max resid (incl. the buffer)=  9.89247E-14
  prteigrs : nnsclo,ikpt=   25  267 max resid (incl. the buffer)=  1.63214E-13
  prteigrs : nnsclo,ikpt=   25  268 max resid (incl. the buffer)=  1.28932E-06
  prteigrs : nnsclo,ikpt=   25  269 max resid (incl. the buffer)=  6.60553E-15
  prteigrs : nnsclo,ikpt=   25  270 max resid (incl. the buffer)=  6.27524E-18
  prteigrs : nnsclo,ikpt=   25  271 max resid (incl. the buffer)=  5.08597E-14
  prteigrs : nnsclo,ikpt=   25  272 max resid (incl. the buffer)=  9.28175E-20
[...]
                       2.50000000E-01  3.75000000E-01  0.00000000E+00
                       3.75000000E-01  3.75000000E-01  0.00000000E+00
                       5.00000000E-01  3.75000000E-01  0.00000000E+00
                      -3.75000000E-01  3.75000000E-01  0.00000000E+00
                      -2.50000000E-01  3.75000000E-01  0.00000000E+00
                      -1.25000000E-01  3.75000000E-01  0.00000000E+00
                       0.00000000E+00  5.00000000E-01  0.00000000E+00
                       1.25000000E-01  5.00000000E-01  0.00000000E+00
                       2.50000000E-01  5.00000000E-01  0.00000000E+00
                       3.75000000E-01  5.00000000E-01  0.00000000E+00
                       5.00000000E-01  5.00000000E-01  0.00000000E+00
                      -3.75000000E-01  5.00000000E-01  0.00000000E+00
                      -2.50000000E-01  5.00000000E-01  0.00000000E+00
                      -1.25000000E-01  5.00000000E-01  0.00000000E+00
                       0.00000000E+00 -3.75000000E-01  0.00000000E+00
                       1.25000000E-01 -3.75000000E-01  0.00000000E+00
                       2.50000000E-01 -3.75000000E-01  0.00000000E+00
                       3.75000000E-01 -3.75000000E-01  0.00000000E+00
                       5.00000000E-01 -3.75000000E-01  0.00000000E+00
                      -3.75000000E-01 -3.75000000E-01  0.00000000E+00
                      -2.50000000E-01 -3.75000000E-01  0.00000000E+00
                      -1.25000000E-01 -3.75000000E-01  0.00000000E+00
                       0.00000000E+00 -2.50000000E-01  0.00000000E+00
                       1.25000000E-01 -2.50000000E-01  0.00000000E+00
              kpt6     0.00000000E+00  0.00000000E+00  0.00000000E+00
                       1.25000000E-01  0.00000000E+00  0.00000000E+00
                       2.50000000E-01  0.00000000E+00  0.00000000E+00
                       3.75000000E-01  0.00000000E+00  0.00000000E+00
                       5.00000000E-01  0.00000000E+00  0.00000000E+00
                      -3.75000000E-01  0.00000000E+00  0.00000000E+00
                      -2.50000000E-01  0.00000000E+00  0.00000000E+00
                      -1.25000000E-01  0.00000000E+00  0.00000000E+00
                       0.00000000E+00  1.25000000E-01  0.00000000E+00
                       1.25000000E-01  1.25000000E-01  0.00000000E+00
                       2.50000000E-01  1.25000000E-01  0.00000000E+00
                       3.75000000E-01  1.25000000E-01  0.00000000E+00
                       5.00000000E-01  1.25000000E-01  0.00000000E+00
                      -3.75000000E-01  1.25000000E-01  0.00000000E+00
                      -2.50000000E-01  1.25000000E-01  0.00000000E+00
                      -1.25000000E-01  1.25000000E-01  0.00000000E+00
                       0.00000000E+00  2.50000000E-01  0.00000000E+00
                       1.25000000E-01  2.50000000E-01  0.00000000E+00
                       2.50000000E-01  2.50000000E-01  0.00000000E+00
                       3.75000000E-01  2.50000000E-01  0.00000000E+00
                       5.00000000E-01  2.50000000E-01  0.00000000E+00
                      -3.75000000E-01  2.50000000E-01  0.00000000E+00
                      -2.50000000E-01  2.50000000E-01  0.00000000E+00
                      -1.25000000E-01  2.50000000E-01  0.00000000E+00
                       0.00000000E+00  3.75000000E-01  0.00000000E+00
                       1.25000000E-01  3.75000000E-01  0.00000000E+00
                       2.50000000E-01  3.75000000E-01  0.00000000E+00
                       3.75000000E-01  3.75000000E-01  0.00000000E+00
                       5.00000000E-01  3.75000000E-01  0.00000000E+00
                      -3.75000000E-01  3.75000000E-01  0.00000000E+00
                      -2.50000000E-01  3.75000000E-01  0.00000000E+00
                      -1.25000000E-01  3.75000000E-01  0.00000000E+00
                       0.00000000E+00  5.00000000E-01  0.00000000E+00
                       1.25000000E-01  5.00000000E-01  0.00000000E+00
                       2.50000000E-01  5.00000000E-01  0.00000000E+00
                       3.75000000E-01  5.00000000E-01  0.00000000E+00
                       5.00000000E-01  5.00000000E-01  0.00000000E+00
                      -3.75000000E-01  5.00000000E-01  0.00000000E+00
                      -2.50000000E-01  5.00000000E-01  0.00000000E+00
                      -1.25000000E-01  5.00000000E-01  0.00000000E+00
                       0.00000000E+00 -3.75000000E-01  0.00000000E+00
                       1.25000000E-01 -3.75000000E-01  0.00000000E+00
                       2.50000000E-01 -3.75000000E-01  0.00000000E+00
                       3.75000000E-01 -3.75000000E-01  0.00000000E+00
                       5.00000000E-01 -3.75000000E-01  0.00000000E+00
                      -3.75000000E-01 -3.75000000E-01  0.00000000E+00
                      -2.50000000E-01 -3.75000000E-01  0.00000000E+00
                      -1.25000000E-01 -3.75000000E-01  0.00000000E+00
                       0.00000000E+00 -2.50000000E-01  0.00000000E+00
                       1.25000000E-01 -2.50000000E-01  0.00000000E+00
                       outvar_i_n : Printing only first  50 k-points.
           kptopt1          1
           kptopt2          1
           kptopt3          3
           kptopt4          3
           kptopt5          3
           kptopt6          3
         kptrlatt        8    0    0      0    8    0      0    0    8
          kptrlen      5.99626550E+01
P           mkmem1          5
P           mkmem2          5
P           mkmem3         86
P           mkmem4         86
P           mkmem5         86
P           mkmem6         86
P          mkqmem1          5
P          mkqmem2          5
P          mkqmem3         86
P          mkqmem4         86
P          mkqmem5         86
P          mkqmem6         86
P          mk1mem1          5
P          mk1mem2          5
P          mk1mem3         86
P          mk1mem4         86
P          mk1mem5         86
P          mk1mem6         86
            natom           2
            nband1          4
            nband2         12
            nband3         12
            nband4         12
            nband5         12
            nband6         12
           nbdbuf1          0
           nbdbuf2          2
           nbdbuf3          2
           nbdbuf4          2
           nbdbuf5          2
           nbdbuf6          2
           ndtset           6
            ngfft          30      30      30
             nkpt1         29
             nkpt2         29
             nkpt3        512
             nkpt4        512
             nkpt5        512
             nkpt6        512
            nline1          4
            nline2          4
            nline3          4
            nline4          0
            nline5          0
            nline6          0
             nqpt1          0
             nqpt2          0
             nqpt3          0
             nqpt4          1
             nqpt5          1
             nqpt6          1
            nstep1         25
            nstep2         25
            nstep3         25
            nstep4          1
            nstep5          1
            nstep6          1
             nsym          24
           ntypat           2
              occ1     2.000000  2.000000  2.000000  2.000000
              occ4     2.000000  2.000000  2.000000  2.000000  0.000000  0.000000
                       0.000000  0.000000  0.000000  0.000000  0.000000  0.000000
              occ5     2.000000  2.000000  2.000000  2.000000  0.000000  0.000000
                       0.000000  0.000000  0.000000  0.000000  0.000000  0.000000
              occ6     2.000000  2.000000  2.000000  2.000000  0.000000  0.000000
                       0.000000  0.000000  0.000000  0.000000  0.000000  0.000000
        optdriver1          0
        optdriver2          0
        optdriver3          0
        optdriver4          1
        optdriver5          1
        optdriver6          1
            prtwf1          1
            prtwf2          1
            prtwf3          1
            prtwf4          3
            prtwf5          3
            prtwf6          3
            rfdir1          0       0       0
            rfdir2          0       0       0
            rfdir3          0       0       0
            rfdir4          1       0       0
            rfdir5          0       1       0
            rfdir6          0       0       1
           rfelfd1          0
           rfelfd2          0
           rfelfd3          0
           rfelfd4          2
           rfelfd5          2
           rfelfd6          2
            rprim      0.0000000000E+00  5.0000000000E-01  5.0000000000E-01
                       5.0000000000E-01  0.0000000000E+00  5.0000000000E-01
                       5.0000000000E-01  5.0000000000E-01  0.0000000000E+00
          spgroup         216
           strten1     2.1461668181E-04  2.1461668181E-04  2.1461668181E-04
                       0.0000000000E+00  0.0000000000E+00  0.0000000000E+00
           symrel      1  0  0   0  1  0   0  0  1       0 -1  1   0 -1  0   1 -1  0
                      -1  0  0  -1  0  1  -1  1  0       0  1 -1   1  0 -1   0  0 -1
                      -1  0  0  -1  1  0  -1  0  1       0 -1  1   1 -1  0   0 -1  0
                       1  0  0   0  0  1   0  1  0       0  1 -1   0  0 -1   1  0 -1
                      -1  0  1  -1  1  0  -1  0  0       0 -1  0   1 -1  0   0 -1  1
                       1  0 -1   0  0 -1   0  1 -1       0  1  0   0  0  1   1  0  0
                       1  0 -1   0  1 -1   0  0 -1       0 -1  0   0 -1  1   1 -1  0
                      -1  0  1  -1  0  0  -1  1  0       0  1  0   1  0  0   0  0  1
                       0  0 -1   0  1 -1   1  0 -1       1 -1  0   0 -1  1   0 -1  0
                       0  0  1   1  0  0   0  1  0      -1  1  0  -1  0  0  -1  0  1
                       0  0  1   0  1  0   1  0  0       1 -1  0   0 -1  0   0 -1  1
                       0  0 -1   1  0 -1   0  1 -1      -1  1  0  -1  0  1  -1  0  0
           tolwfr      1.00000000E-20
            typat      1  2
              wtk1       0.00195    0.01563    0.01563    0.01563    0.00781    0.01172
                         0.04688    0.04688    0.04688    0.04688    0.04688    0.02344
                         0.01172    0.04688    0.04688    0.04688    0.02344    0.01172
                         0.04688    0.02344    0.00586    0.04688    0.09375    0.04688
                         0.04688    0.09375    0.04688    0.02344    0.01172
              wtk2       0.00195    0.01563    0.01563    0.01563    0.00781    0.01172
                         0.04688    0.04688    0.04688    0.04688    0.04688    0.02344
                         0.01172    0.04688    0.04688    0.04688    0.02344    0.01172
                         0.04688    0.02344    0.00586    0.04688    0.09375    0.04688
                         0.04688    0.09375    0.04688    0.02344    0.01172
              wtk3       0.00195    0.00195    0.00195    0.00195    0.00195    0.00195
                         0.00195    0.00195    0.00195    0.00195    0.00195    0.00195
                         0.00195    0.00195    0.00195    0.00195    0.00195    0.00195
                         0.00195    0.00195    0.00195    0.00195    0.00195    0.00195
                         0.00195    0.00195    0.00195    0.00195    0.00195    0.00195
                         0.00195    0.00195    0.00195    0.00195    0.00195    0.00195
                         0.00195    0.00195    0.00195    0.00195    0.00195    0.00195
                         0.00195    0.00195    0.00195    0.00195    0.00195    0.00195
                         0.00195    0.00195
              wtk4       0.00195    0.00195    0.00195    0.00195    0.00195    0.00195
                         0.00195    0.00195    0.00195    0.00195    0.00195    0.00195
                         0.00195    0.00195    0.00195    0.00195    0.00195    0.00195
                         0.00195    0.00195    0.00195    0.00195    0.00195    0.00195
                         0.00195    0.00195    0.00195    0.00195    0.00195    0.00195
                         0.00195    0.00195    0.00195    0.00195    0.00195    0.00195
                         0.00195    0.00195    0.00195    0.00195    0.00195    0.00195
                         0.00195    0.00195    0.00195    0.00195    0.00195    0.00195
                         0.00195    0.00195
              wtk5       0.00195    0.00195    0.00195    0.00195    0.00195    0.00195
                         0.00195    0.00195    0.00195    0.00195    0.00195    0.00195
                         0.00195    0.00195    0.00195    0.00195    0.00195    0.00195
                         0.00195    0.00195    0.00195    0.00195    0.00195    0.00195
                         0.00195    0.00195    0.00195    0.00195    0.00195    0.00195
                         0.00195    0.00195    0.00195    0.00195    0.00195    0.00195
                         0.00195    0.00195    0.00195    0.00195    0.00195    0.00195
                         0.00195    0.00195    0.00195    0.00195    0.00195    0.00195
                         0.00195    0.00195
              wtk6       0.00195    0.00195    0.00195    0.00195    0.00195    0.00195
                         0.00195    0.00195    0.00195    0.00195    0.00195    0.00195
                         0.00195    0.00195    0.00195    0.00195    0.00195    0.00195
                         0.00195    0.00195    0.00195    0.00195    0.00195    0.00195
                         0.00195    0.00195    0.00195    0.00195    0.00195    0.00195
                         0.00195    0.00195    0.00195    0.00195    0.00195    0.00195
                         0.00195    0.00195    0.00195    0.00195    0.00195    0.00195
                         0.00195    0.00195    0.00195    0.00195    0.00195    0.00195
                         0.00195    0.00195
                       outvars : Printing only first  50 k-points.
           xangst      0.0000000000E+00  0.0000000000E+00  0.0000000000E+00
                       1.4023196028E+00  1.4023196028E+00  1.4023196028E+00
            xcart      0.0000000000E+00  0.0000000000E+00  0.0000000000E+00
                       2.6500000000E+00  2.6500000000E+00  2.6500000000E+00
             xred      0.0000000000E+00  0.0000000000E+00  0.0000000000E+00
                       2.5000000000E-01  2.5000000000E-01  2.5000000000E-01
            znucl       31.00000   33.00000

================================================================================


- Timing analysis has been suppressed with timopt=0



================================================================================

 Suggested references for the acknowledgment of ABINIT usage.

 The users of ABINIT have little formal obligations with respect to the ABINIT group
 (those specified in the GNU General Public License, http://www.gnu.org/copyleft/gpl.txt).
 However, it is common practice in the scientific literature,
 to acknowledge the efforts of people that have made the research possible.
 In this spirit, please find below suggested citations of work written by ABINIT developers,
 corresponding to implementations inside of ABINIT that you have used in the present run.
 Note also that it will be of great value to readers of publications presenting these results,
 to read papers enabling them to understand the theoretical formalism and details
 of the ABINIT implementation.
 For information on why they are suggested, see also https://docs.abinit.org/theory/acknowledgments.
-
- [1] The Abinit project: Impact, environment and recent developments.
- Computer Phys. Comm. 248, 107042 (2020).
- X.Gonze, B. Amadon, G. Antonius, F.Arnardi, L.Baguet, J.-M.Beuken,
- J.Bieder, F.Bottin, J.Bouchet, E.Bousquet, N.Brouwer, F.Bruneval,
- G.Brunin, T.Cavignac, J.-B. Charraud, Wei Chen, M.Cote, S.Cottenier,
- J.Denier, G.Geneste, Ph.Ghosez, M.Giantomassi, Y.Gillet, O.Gingras,
- D.R.Hamann, G.Hautier, Xu He, N.Helbig, N.Holzwarth, Y.Jia, F.Jollet,
- W.Lafargue-Dit-Hauret, K.Lejaeghere, M.A.L.Marques, A.Martin, C.Martins,
- H.P.C. Miranda, F.Naccarato, K. Persson, G.Petretto, V.Planes, Y.Pouillon,
- S.Prokhorenko, F.Ricci, G.-M.Rignanese, A.H.Romero, M.M.Schmitt, M.Torrent,
- M.J.van Setten, B.Van Troeye, M.J.Verstraete, G.Zerah and J.W.Zwanzig
- Comment: the fifth generic paper describing the ABINIT project.
- Note that a version of this paper, that is not formatted for Computer Phys. Comm. 
- is available at https://www.abinit.org/sites/default/files/ABINIT20.pdf .
- The licence allows the authors to put it on the Web.
- DOI and bibtex: see https://docs.abinit.org/theory/bibliography/#gonze2020
-
- [2] First-principles responses of solids to atomic displacements and homogeneous electric fields:,
- implementation of a conjugate-gradient algorithm. X. Gonze, Phys. Rev. B55, 10337 (1997).
- Comment: Non-vanishing rfphon and/or rfelfd, in the norm-conserving case.
- DOI and bibtex: see https://docs.abinit.org/theory/bibliography/#gonze1997
-
- [3] Dynamical matrices, Born effective charges, dielectric permittivity tensors, and ,
- interatomic force constants from density-functional perturbation theory,
- X. Gonze and C. Lee, Phys. Rev. B55, 10355 (1997).
- Comment: Non-vanishing rfphon and/or rfelfd, in the norm-conserving case.
- DOI and bibtex: see https://docs.abinit.org/theory/bibliography/#gonze1997a
-
- [4] ABINIT: Overview, and focus on selected capabilities
- J. Chem. Phys. 152, 124102 (2020).
- A. Romero, D.C. Allan, B. Amadon, G. Antonius, T. Applencourt, L.Baguet,
- J.Bieder, F.Bottin, J.Bouchet, E.Bousquet, F.Bruneval,
- G.Brunin, D.Caliste, M.Cote,
- J.Denier, C. Dreyer, Ph.Ghosez, M.Giantomassi, Y.Gillet, O.Gingras,
- D.R.Hamann, G.Hautier, F.Jollet, G. Jomard,
- A.Martin, 
- H.P.C. Miranda, F.Naccarato, G.Petretto, N.A. Pike, V.Planes,
- S.Prokhorenko, T. Rangel, F.Ricci, G.-M.Rignanese, M.Royo, M.Stengel, M.Torrent,
- M.J.van Setten, B.Van Troeye, M.J.Verstraete, J.Wiktor, J.W.Zwanziger, and X.Gonze.
- Comment: a global overview of ABINIT, with focus on selected capabilities .
- Note that a version of this paper, that is not formatted for J. Chem. Phys 
- is available at https://www.abinit.org/sites/default/files/ABINIT20_JPC.pdf .
- The licence allows the authors to put it on the Web.
- DOI and bibtex: see https://docs.abinit.org/theory/bibliography/#romero2020
-
- [5] Recent developments in the ABINIT software package.
- Computer Phys. Comm. 205, 106 (2016).
- X.Gonze, F.Jollet, F.Abreu Araujo, D.Adams, B.Amadon, T.Applencourt,
- C.Audouze, J.-M.Beuken, J.Bieder, A.Bokhanchuk, E.Bousquet, F.Bruneval
- D.Caliste, M.Cote, F.Dahm, F.Da Pieve, M.Delaveau, M.Di Gennaro,
- B.Dorado, C.Espejo, G.Geneste, L.Genovese, A.Gerossier, M.Giantomassi,
- Y.Gillet, D.R.Hamann, L.He, G.Jomard, J.Laflamme Janssen, S.Le Roux,
- A.Levitt, A.Lherbier, F.Liu, I.Lukacevic, A.Martin, C.Martins,
- M.J.T.Oliveira, S.Ponce, Y.Pouillon, T.Rangel, G.-M.Rignanese,
- A.H.Romero, B.Rousseau, O.Rubel, A.A.Shukri, M.Stankovski, M.Torrent,
- M.J.Van Setten, B.Van Troeye, M.J.Verstraete, D.Waroquier, J.Wiktor,
- B.Xu, A.Zhou, J.W.Zwanziger.
- Comment: the fourth generic paper describing the ABINIT project.
- Note that a version of this paper, that is not formatted for Computer Phys. Comm. 
- is available at https://www.abinit.org/sites/default/files/ABINIT16.pdf .
- The licence allows the authors to put it on the Web.
- DOI and bibtex: see https://docs.abinit.org/theory/bibliography/#gonze2016
-
- Proc.   0 individual time (sec): cpu=          7.4  wall=          7.4

================================================================================

 Calculation completed.
.Delivered   7 WARNINGs and  18 COMMENTs to log file.
+Overall time at end (sec) : cpu=         43.9  wall=         44.0
